+ 0.2 0 1 tcp 40 ------- 0 0.0 2.0 0 0
- 0.2 0 1 tcp 40 ------- 0 0.0 2.0 0 0
r 0.26032 0 1 tcp 40 ------- 0 0.0 2.0 0 0
+ 0.26032 1 2 tcp 40 ------- 0 0.0 2.0 0 0
- 0.26032 1 2 tcp 40 ------- 0 0.0 2.0 0 0
r 0.32096 1 2 tcp 40 ------- 0 0.0 2.0 0 0
+ 0.32096 2 1 ack 40 ------- 0 2.0 0.0 0 1
- 0.32096 2 1 ack 40 ------- 0 2.0 0.0 0 1
r 0.3816 2 1 ack 40 ------- 0 2.0 0.0 0 1
+ 0.3816 1 0 ack 40 ------- 0 2.0 0.0 0 1
- 0.3816 1 0 ack 40 ------- 0 2.0 0.0 0 1
r 0.44192 1 0 ack 40 ------- 0 2.0 0.0 0 1
+ 0.44192 0 1 tcp 1540 ------- 0 0.0 2.0 1 2
- 0.44192 0 1 tcp 1540 ------- 0 0.0 2.0 1 2
+ 0.44192 0 1 tcp 1540 ------- 0 0.0 2.0 2 3
- 0.45424 0 1 tcp 1540 ------- 0 0.0 2.0 2 3
r 0.51424 0 1 tcp 1540 ------- 0 0.0 2.0 1 2
+ 0.51424 1 2 tcp 1540 ------- 0 0.0 2.0 1 2
- 0.51424 1 2 tcp 1540 ------- 0 0.0 2.0 1 2
r 0.52656 0 1 tcp 1540 ------- 0 0.0 2.0 2 3
+ 0.52656 1 2 tcp 1540 ------- 0 0.0 2.0 2 3
- 0.53888 1 2 tcp 1540 ------- 0 0.0 2.0 2 3
r 0.59888 1 2 tcp 1540 ------- 0 0.0 2.0 1 2
+ 0.59888 2 1 ack 40 ------- 0 2.0 0.0 1 4
- 0.59888 2 1 ack 40 ------- 0 2.0 0.0 1 4
r 0.62352 1 2 tcp 1540 ------- 0 0.0 2.0 2 3
+ 0.62352 2 1 ack 40 ------- 0 2.0 0.0 2 5
- 0.62352 2 1 ack 40 ------- 0 2.0 0.0 2 5
r 0.65952 2 1 ack 40 ------- 0 2.0 0.0 1 4
+ 0.65952 1 0 ack 40 ------- 0 2.0 0.0 1 4
- 0.65952 1 0 ack 40 ------- 0 2.0 0.0 1 4
r 0.68416 2 1 ack 40 ------- 0 2.0 0.0 2 5
+ 0.68416 1 0 ack 40 ------- 0 2.0 0.0 2 5
- 0.68416 1 0 ack 40 ------- 0 2.0 0.0 2 5
r 0.71984 1 0 ack 40 ------- 0 2.0 0.0 1 4
+ 0.71984 0 1 tcp 1540 ------- 0 0.0 2.0 3 6
- 0.71984 0 1 tcp 1540 ------- 0 0.0 2.0 3 6
+ 0.71984 0 1 tcp 1540 ------- 0 0.0 2.0 4 7
- 0.73216 0 1 tcp 1540 ------- 0 0.0 2.0 4 7
r 0.74448 1 0 ack 40 ------- 0 2.0 0.0 2 5
+ 0.74448 0 1 tcp 1540 ------- 0 0.0 2.0 5 8
+ 0.74448 0 1 tcp 1540 ------- 0 0.0 2.0 6 9
- 0.74448 0 1 tcp 1540 ------- 0 0.0 2.0 5 8
- 0.7568 0 1 tcp 1540 ------- 0 0.0 2.0 6 9
r 0.79216 0 1 tcp 1540 ------- 0 0.0 2.0 3 6
+ 0.79216 1 2 tcp 1540 ------- 0 0.0 2.0 3 6
- 0.79216 1 2 tcp 1540 ------- 0 0.0 2.0 3 6
r 0.80448 0 1 tcp 1540 ------- 0 0.0 2.0 4 7
+ 0.80448 1 2 tcp 1540 ------- 0 0.0 2.0 4 7
r 0.8168 0 1 tcp 1540 ------- 0 0.0 2.0 5 8
+ 0.8168 1 2 tcp 1540 ------- 0 0.0 2.0 5 8
- 0.8168 1 2 tcp 1540 ------- 0 0.0 2.0 4 7
r 0.82912 0 1 tcp 1540 ------- 0 0.0 2.0 6 9
+ 0.82912 1 2 tcp 1540 ------- 0 0.0 2.0 6 9
- 0.84144 1 2 tcp 1540 ------- 0 0.0 2.0 5 8
- 0.86608 1 2 tcp 1540 ------- 0 0.0 2.0 6 9
r 0.8768 1 2 tcp 1540 ------- 0 0.0 2.0 3 6
+ 0.8768 2 1 ack 40 ------- 0 2.0 0.0 3 10
- 0.8768 2 1 ack 40 ------- 0 2.0 0.0 3 10
r 0.90144 1 2 tcp 1540 ------- 0 0.0 2.0 4 7
+ 0.90144 2 1 ack 40 ------- 0 2.0 0.0 4 11
- 0.90144 2 1 ack 40 ------- 0 2.0 0.0 4 11
r 0.92608 1 2 tcp 1540 ------- 0 0.0 2.0 5 8
+ 0.92608 2 1 ack 40 ------- 0 2.0 0.0 5 12
- 0.92608 2 1 ack 40 ------- 0 2.0 0.0 5 12
r 0.93744 2 1 ack 40 ------- 0 2.0 0.0 3 10
+ 0.93744 1 0 ack 40 ------- 0 2.0 0.0 3 10
- 0.93744 1 0 ack 40 ------- 0 2.0 0.0 3 10
r 0.95072 1 2 tcp 1540 ------- 0 0.0 2.0 6 9
+ 0.95072 2 1 ack 40 ------- 0 2.0 0.0 6 13
- 0.95072 2 1 ack 40 ------- 0 2.0 0.0 6 13
r 0.96208 2 1 ack 40 ------- 0 2.0 0.0 4 11
+ 0.96208 1 0 ack 40 ------- 0 2.0 0.0 4 11
- 0.96208 1 0 ack 40 ------- 0 2.0 0.0 4 11
r 0.98672 2 1 ack 40 ------- 0 2.0 0.0 5 12
+ 0.98672 1 0 ack 40 ------- 0 2.0 0.0 5 12
- 0.98672 1 0 ack 40 ------- 0 2.0 0.0 5 12
r 0.99776 1 0 ack 40 ------- 0 2.0 0.0 3 10
+ 0.99776 0 1 tcp 1540 ------- 0 0.0 2.0 7 14
- 0.99776 0 1 tcp 1540 ------- 0 0.0 2.0 7 14
+ 0.99776 0 1 tcp 1540 ------- 0 0.0 2.0 8 15
- 1.01008 0 1 tcp 1540 ------- 0 0.0 2.0 8 15
r 1.01136 2 1 ack 40 ------- 0 2.0 0.0 6 13
+ 1.01136 1 0 ack 40 ------- 0 2.0 0.0 6 13
- 1.01136 1 0 ack 40 ------- 0 2.0 0.0 6 13
r 1.0224 1 0 ack 40 ------- 0 2.0 0.0 4 11
+ 1.0224 0 1 tcp 1540 ------- 0 0.0 2.0 9 16
+ 1.0224 0 1 tcp 1540 ------- 0 0.0 2.0 10 17
- 1.0224 0 1 tcp 1540 ------- 0 0.0 2.0 9 16
- 1.03472 0 1 tcp 1540 ------- 0 0.0 2.0 10 17
r 1.04704 1 0 ack 40 ------- 0 2.0 0.0 5 12
+ 1.04704 0 1 tcp 1540 ------- 0 0.0 2.0 11 18
+ 1.04704 0 1 tcp 1540 ------- 0 0.0 2.0 12 19
- 1.04704 0 1 tcp 1540 ------- 0 0.0 2.0 11 18
- 1.05936 0 1 tcp 1540 ------- 0 0.0 2.0 12 19
r 1.07008 0 1 tcp 1540 ------- 0 0.0 2.0 7 14
+ 1.07008 1 2 tcp 1540 ------- 0 0.0 2.0 7 14
- 1.07008 1 2 tcp 1540 ------- 0 0.0 2.0 7 14
r 1.07168 1 0 ack 40 ------- 0 2.0 0.0 6 13
+ 1.07168 0 1 tcp 1540 ------- 0 0.0 2.0 13 20
+ 1.07168 0 1 tcp 1540 ------- 0 0.0 2.0 14 21
- 1.07168 0 1 tcp 1540 ------- 0 0.0 2.0 13 20
r 1.0824 0 1 tcp 1540 ------- 0 0.0 2.0 8 15
+ 1.0824 1 2 tcp 1540 ------- 0 0.0 2.0 8 15
- 1.084 0 1 tcp 1540 ------- 0 0.0 2.0 14 21
r 1.09472 0 1 tcp 1540 ------- 0 0.0 2.0 9 16
+ 1.09472 1 2 tcp 1540 ------- 0 0.0 2.0 9 16
- 1.09472 1 2 tcp 1540 ------- 0 0.0 2.0 8 15
r 1.10704 0 1 tcp 1540 ------- 0 0.0 2.0 10 17
+ 1.10704 1 2 tcp 1540 ------- 0 0.0 2.0 10 17
- 1.11936 1 2 tcp 1540 ------- 0 0.0 2.0 9 16
r 1.11936 0 1 tcp 1540 ------- 0 0.0 2.0 11 18
+ 1.11936 1 2 tcp 1540 ------- 0 0.0 2.0 11 18
r 1.13168 0 1 tcp 1540 ------- 0 0.0 2.0 12 19
+ 1.13168 1 2 tcp 1540 ------- 0 0.0 2.0 12 19
- 1.144 1 2 tcp 1540 ------- 0 0.0 2.0 10 17
r 1.144 0 1 tcp 1540 ------- 0 0.0 2.0 13 20
+ 1.144 1 2 tcp 1540 ------- 0 0.0 2.0 13 20
r 1.15472 1 2 tcp 1540 ------- 0 0.0 2.0 7 14
+ 1.15472 2 1 ack 40 ------- 0 2.0 0.0 7 22
- 1.15472 2 1 ack 40 ------- 0 2.0 0.0 7 22
r 1.15632 0 1 tcp 1540 ------- 0 0.0 2.0 14 21
+ 1.15632 1 2 tcp 1540 ------- 0 0.0 2.0 14 21
- 1.16864 1 2 tcp 1540 ------- 0 0.0 2.0 11 18
r 1.17936 1 2 tcp 1540 ------- 0 0.0 2.0 8 15
+ 1.17936 2 1 ack 40 ------- 0 2.0 0.0 8 23
- 1.17936 2 1 ack 40 ------- 0 2.0 0.0 8 23
- 1.19328 1 2 tcp 1540 ------- 0 0.0 2.0 12 19
r 1.204 1 2 tcp 1540 ------- 0 0.0 2.0 9 16
+ 1.204 2 1 ack 40 ------- 0 2.0 0.0 9 24
- 1.204 2 1 ack 40 ------- 0 2.0 0.0 9 24
r 1.21536 2 1 ack 40 ------- 0 2.0 0.0 7 22
+ 1.21536 1 0 ack 40 ------- 0 2.0 0.0 7 22
- 1.21536 1 0 ack 40 ------- 0 2.0 0.0 7 22
- 1.21792 1 2 tcp 1540 ------- 0 0.0 2.0 13 20
r 1.22864 1 2 tcp 1540 ------- 0 0.0 2.0 10 17
+ 1.22864 2 1 ack 40 ------- 0 2.0 0.0 10 25
- 1.22864 2 1 ack 40 ------- 0 2.0 0.0 10 25
r 1.24 2 1 ack 40 ------- 0 2.0 0.0 8 23
+ 1.24 1 0 ack 40 ------- 0 2.0 0.0 8 23
- 1.24 1 0 ack 40 ------- 0 2.0 0.0 8 23
- 1.24256 1 2 tcp 1540 ------- 0 0.0 2.0 14 21
r 1.25328 1 2 tcp 1540 ------- 0 0.0 2.0 11 18
+ 1.25328 2 1 ack 40 ------- 0 2.0 0.0 11 26
- 1.25328 2 1 ack 40 ------- 0 2.0 0.0 11 26
r 1.26464 2 1 ack 40 ------- 0 2.0 0.0 9 24
+ 1.26464 1 0 ack 40 ------- 0 2.0 0.0 9 24
- 1.26464 1 0 ack 40 ------- 0 2.0 0.0 9 24
r 1.27568 1 0 ack 40 ------- 0 2.0 0.0 7 22
+ 1.27568 0 1 tcp 1540 ------- 0 0.0 2.0 15 27
- 1.27568 0 1 tcp 1540 ------- 0 0.0 2.0 15 27
+ 1.27568 0 1 tcp 1540 ------- 0 0.0 2.0 16 28
r 1.27792 1 2 tcp 1540 ------- 0 0.0 2.0 12 19
+ 1.27792 2 1 ack 40 ------- 0 2.0 0.0 12 29
- 1.27792 2 1 ack 40 ------- 0 2.0 0.0 12 29
- 1.288 0 1 tcp 1540 ------- 0 0.0 2.0 16 28
r 1.28928 2 1 ack 40 ------- 0 2.0 0.0 10 25
+ 1.28928 1 0 ack 40 ------- 0 2.0 0.0 10 25
- 1.28928 1 0 ack 40 ------- 0 2.0 0.0 10 25
r 1.30032 1 0 ack 40 ------- 0 2.0 0.0 8 23
+ 1.30032 0 1 tcp 1540 ------- 0 0.0 2.0 17 30
+ 1.30032 0 1 tcp 1540 ------- 0 0.0 2.0 18 31
- 1.30032 0 1 tcp 1540 ------- 0 0.0 2.0 17 30
r 1.30256 1 2 tcp 1540 ------- 0 0.0 2.0 13 20
+ 1.30256 2 1 ack 40 ------- 0 2.0 0.0 13 32
- 1.30256 2 1 ack 40 ------- 0 2.0 0.0 13 32
- 1.31264 0 1 tcp 1540 ------- 0 0.0 2.0 18 31
r 1.31392 2 1 ack 40 ------- 0 2.0 0.0 11 26
+ 1.31392 1 0 ack 40 ------- 0 2.0 0.0 11 26
- 1.31392 1 0 ack 40 ------- 0 2.0 0.0 11 26
r 1.32496 1 0 ack 40 ------- 0 2.0 0.0 9 24
+ 1.32496 0 1 tcp 1540 ------- 0 0.0 2.0 19 33
+ 1.32496 0 1 tcp 1540 ------- 0 0.0 2.0 20 34
- 1.32496 0 1 tcp 1540 ------- 0 0.0 2.0 19 33
r 1.3272 1 2 tcp 1540 ------- 0 0.0 2.0 14 21
+ 1.3272 2 1 ack 40 ------- 0 2.0 0.0 14 35
- 1.3272 2 1 ack 40 ------- 0 2.0 0.0 14 35
- 1.33728 0 1 tcp 1540 ------- 0 0.0 2.0 20 34
r 1.33856 2 1 ack 40 ------- 0 2.0 0.0 12 29
+ 1.33856 1 0 ack 40 ------- 0 2.0 0.0 12 29
- 1.33856 1 0 ack 40 ------- 0 2.0 0.0 12 29
r 1.348 0 1 tcp 1540 ------- 0 0.0 2.0 15 27
+ 1.348 1 2 tcp 1540 ------- 0 0.0 2.0 15 27
- 1.348 1 2 tcp 1540 ------- 0 0.0 2.0 15 27
r 1.3496 1 0 ack 40 ------- 0 2.0 0.0 10 25
+ 1.3496 0 1 tcp 1540 ------- 0 0.0 2.0 21 36
+ 1.3496 0 1 tcp 1540 ------- 0 0.0 2.0 22 37
- 1.3496 0 1 tcp 1540 ------- 0 0.0 2.0 21 36
r 1.36032 0 1 tcp 1540 ------- 0 0.0 2.0 16 28
+ 1.36032 1 2 tcp 1540 ------- 0 0.0 2.0 16 28
- 1.36192 0 1 tcp 1540 ------- 0 0.0 2.0 22 37
r 1.3632 2 1 ack 40 ------- 0 2.0 0.0 13 32
+ 1.3632 1 0 ack 40 ------- 0 2.0 0.0 13 32
- 1.3632 1 0 ack 40 ------- 0 2.0 0.0 13 32
- 1.37264 1 2 tcp 1540 ------- 0 0.0 2.0 16 28
r 1.37264 0 1 tcp 1540 ------- 0 0.0 2.0 17 30
+ 1.37264 1 2 tcp 1540 ------- 0 0.0 2.0 17 30
r 1.37424 1 0 ack 40 ------- 0 2.0 0.0 11 26
+ 1.37424 0 1 tcp 1540 ------- 0 0.0 2.0 23 38
+ 1.37424 0 1 tcp 1540 ------- 0 0.0 2.0 24 39
- 1.37424 0 1 tcp 1540 ------- 0 0.0 2.0 23 38
r 1.38496 0 1 tcp 1540 ------- 0 0.0 2.0 18 31
+ 1.38496 1 2 tcp 1540 ------- 0 0.0 2.0 18 31
- 1.38656 0 1 tcp 1540 ------- 0 0.0 2.0 24 39
r 1.38784 2 1 ack 40 ------- 0 2.0 0.0 14 35
+ 1.38784 1 0 ack 40 ------- 0 2.0 0.0 14 35
- 1.38784 1 0 ack 40 ------- 0 2.0 0.0 14 35
- 1.39728 1 2 tcp 1540 ------- 0 0.0 2.0 17 30
r 1.39728 0 1 tcp 1540 ------- 0 0.0 2.0 19 33
+ 1.39728 1 2 tcp 1540 ------- 0 0.0 2.0 19 33
r 1.39888 1 0 ack 40 ------- 0 2.0 0.0 12 29
+ 1.39888 0 1 tcp 1540 ------- 0 0.0 2.0 25 40
+ 1.39888 0 1 tcp 1540 ------- 0 0.0 2.0 26 41
- 1.39888 0 1 tcp 1540 ------- 0 0.0 2.0 25 40
r 1.4096 0 1 tcp 1540 ------- 0 0.0 2.0 20 34
+ 1.4096 1 2 tcp 1540 ------- 0 0.0 2.0 20 34
- 1.4112 0 1 tcp 1540 ------- 0 0.0 2.0 26 41
- 1.42192 1 2 tcp 1540 ------- 0 0.0 2.0 18 31
r 1.42192 0 1 tcp 1540 ------- 0 0.0 2.0 21 36
+ 1.42192 1 2 tcp 1540 ------- 0 0.0 2.0 21 36
r 1.42352 1 0 ack 40 ------- 0 2.0 0.0 13 32
+ 1.42352 0 1 tcp 1540 ------- 0 0.0 2.0 27 42
+ 1.42352 0 1 tcp 1540 ------- 0 0.0 2.0 28 43
- 1.42352 0 1 tcp 1540 ------- 0 0.0 2.0 27 42
r 1.43264 1 2 tcp 1540 ------- 0 0.0 2.0 15 27
+ 1.43264 2 1 ack 40 ------- 0 2.0 0.0 15 44
- 1.43264 2 1 ack 40 ------- 0 2.0 0.0 15 44
r 1.43424 0 1 tcp 1540 ------- 0 0.0 2.0 22 37
+ 1.43424 1 2 tcp 1540 ------- 0 0.0 2.0 22 37
- 1.43584 0 1 tcp 1540 ------- 0 0.0 2.0 28 43
- 1.44656 1 2 tcp 1540 ------- 0 0.0 2.0 19 33
r 1.44656 0 1 tcp 1540 ------- 0 0.0 2.0 23 38
+ 1.44656 1 2 tcp 1540 ------- 0 0.0 2.0 23 38
r 1.44816 1 0 ack 40 ------- 0 2.0 0.0 14 35
+ 1.44816 0 1 tcp 1540 ------- 0 0.0 2.0 29 45
+ 1.44816 0 1 tcp 1540 ------- 0 0.0 2.0 30 46
- 1.44816 0 1 tcp 1540 ------- 0 0.0 2.0 29 45
r 1.45728 1 2 tcp 1540 ------- 0 0.0 2.0 16 28
+ 1.45728 2 1 ack 40 ------- 0 2.0 0.0 16 47
- 1.45728 2 1 ack 40 ------- 0 2.0 0.0 16 47
r 1.45888 0 1 tcp 1540 ------- 0 0.0 2.0 24 39
+ 1.45888 1 2 tcp 1540 ------- 0 0.0 2.0 24 39
- 1.46048 0 1 tcp 1540 ------- 0 0.0 2.0 30 46
- 1.4712 1 2 tcp 1540 ------- 0 0.0 2.0 20 34
r 1.4712 0 1 tcp 1540 ------- 0 0.0 2.0 25 40
+ 1.4712 1 2 tcp 1540 ------- 0 0.0 2.0 25 40
r 1.48192 1 2 tcp 1540 ------- 0 0.0 2.0 17 30
+ 1.48192 2 1 ack 40 ------- 0 2.0 0.0 17 48
- 1.48192 2 1 ack 40 ------- 0 2.0 0.0 17 48
r 1.48352 0 1 tcp 1540 ------- 0 0.0 2.0 26 41
+ 1.48352 1 2 tcp 1540 ------- 0 0.0 2.0 26 41
d 1.48352 1 2 tcp 1540 ------- 0 0.0 2.0 26 41
r 1.49328 2 1 ack 40 ------- 0 2.0 0.0 15 44
+ 1.49328 1 0 ack 40 ------- 0 2.0 0.0 15 44
- 1.49328 1 0 ack 40 ------- 0 2.0 0.0 15 44
- 1.49584 1 2 tcp 1540 ------- 0 0.0 2.0 21 36
r 1.49584 0 1 tcp 1540 ------- 0 0.0 2.0 27 42
+ 1.49584 1 2 tcp 1540 ------- 0 0.0 2.0 27 42
r 1.50656 1 2 tcp 1540 ------- 0 0.0 2.0 18 31
+ 1.50656 2 1 ack 40 ------- 0 2.0 0.0 18 49
- 1.50656 2 1 ack 40 ------- 0 2.0 0.0 18 49
r 1.50816 0 1 tcp 1540 ------- 0 0.0 2.0 28 43
+ 1.50816 1 2 tcp 1540 ------- 0 0.0 2.0 28 43
d 1.50816 1 2 tcp 1540 ------- 0 0.0 2.0 28 43
r 1.51792 2 1 ack 40 ------- 0 2.0 0.0 16 47
+ 1.51792 1 0 ack 40 ------- 0 2.0 0.0 16 47
- 1.51792 1 0 ack 40 ------- 0 2.0 0.0 16 47
- 1.52048 1 2 tcp 1540 ------- 0 0.0 2.0 22 37
r 1.52048 0 1 tcp 1540 ------- 0 0.0 2.0 29 45
+ 1.52048 1 2 tcp 1540 ------- 0 0.0 2.0 29 45
r 1.5312 1 2 tcp 1540 ------- 0 0.0 2.0 19 33
+ 1.5312 2 1 ack 40 ------- 0 2.0 0.0 19 50
- 1.5312 2 1 ack 40 ------- 0 2.0 0.0 19 50
r 1.5328 0 1 tcp 1540 ------- 0 0.0 2.0 30 46
+ 1.5328 1 2 tcp 1540 ------- 0 0.0 2.0 30 46
d 1.5328 1 2 tcp 1540 ------- 0 0.0 2.0 30 46
r 1.54256 2 1 ack 40 ------- 0 2.0 0.0 17 48
+ 1.54256 1 0 ack 40 ------- 0 2.0 0.0 17 48
- 1.54256 1 0 ack 40 ------- 0 2.0 0.0 17 48
- 1.54512 1 2 tcp 1540 ------- 0 0.0 2.0 23 38
r 1.5536 1 0 ack 40 ------- 0 2.0 0.0 15 44
+ 1.5536 0 1 tcp 1540 ------- 0 0.0 2.0 31 51
- 1.5536 0 1 tcp 1540 ------- 0 0.0 2.0 31 51
+ 1.5536 0 1 tcp 1540 ------- 0 0.0 2.0 32 52
r 1.55584 1 2 tcp 1540 ------- 0 0.0 2.0 20 34
+ 1.55584 2 1 ack 40 ------- 0 2.0 0.0 20 53
- 1.55584 2 1 ack 40 ------- 0 2.0 0.0 20 53
- 1.56592 0 1 tcp 1540 ------- 0 0.0 2.0 32 52
r 1.5672 2 1 ack 40 ------- 0 2.0 0.0 18 49
+ 1.5672 1 0 ack 40 ------- 0 2.0 0.0 18 49
- 1.5672 1 0 ack 40 ------- 0 2.0 0.0 18 49
- 1.56976 1 2 tcp 1540 ------- 0 0.0 2.0 24 39
r 1.57824 1 0 ack 40 ------- 0 2.0 0.0 16 47
+ 1.57824 0 1 tcp 1540 ------- 0 0.0 2.0 33 54
+ 1.57824 0 1 tcp 1540 ------- 0 0.0 2.0 34 55
- 1.57824 0 1 tcp 1540 ------- 0 0.0 2.0 33 54
r 1.58048 1 2 tcp 1540 ------- 0 0.0 2.0 21 36
+ 1.58048 2 1 ack 40 ------- 0 2.0 0.0 21 56
- 1.58048 2 1 ack 40 ------- 0 2.0 0.0 21 56
- 1.59056 0 1 tcp 1540 ------- 0 0.0 2.0 34 55
r 1.59184 2 1 ack 40 ------- 0 2.0 0.0 19 50
+ 1.59184 1 0 ack 40 ------- 0 2.0 0.0 19 50
- 1.59184 1 0 ack 40 ------- 0 2.0 0.0 19 50
- 1.5944 1 2 tcp 1540 ------- 0 0.0 2.0 25 40
r 1.60288 1 0 ack 40 ------- 0 2.0 0.0 17 48
+ 1.60288 0 1 tcp 1540 ------- 0 0.0 2.0 35 57
+ 1.60288 0 1 tcp 1540 ------- 0 0.0 2.0 36 58
- 1.60288 0 1 tcp 1540 ------- 0 0.0 2.0 35 57
r 1.60512 1 2 tcp 1540 ------- 0 0.0 2.0 22 37
+ 1.60512 2 1 ack 40 ------- 0 2.0 0.0 22 59
- 1.60512 2 1 ack 40 ------- 0 2.0 0.0 22 59
- 1.6152 0 1 tcp 1540 ------- 0 0.0 2.0 36 58
r 1.61648 2 1 ack 40 ------- 0 2.0 0.0 20 53
+ 1.61648 1 0 ack 40 ------- 0 2.0 0.0 20 53
- 1.61648 1 0 ack 40 ------- 0 2.0 0.0 20 53
- 1.61904 1 2 tcp 1540 ------- 0 0.0 2.0 27 42
r 1.62592 0 1 tcp 1540 ------- 0 0.0 2.0 31 51
+ 1.62592 1 2 tcp 1540 ------- 0 0.0 2.0 31 51
r 1.62752 1 0 ack 40 ------- 0 2.0 0.0 18 49
+ 1.62752 0 1 tcp 1540 ------- 0 0.0 2.0 37 60
+ 1.62752 0 1 tcp 1540 ------- 0 0.0 2.0 38 61
- 1.62752 0 1 tcp 1540 ------- 0 0.0 2.0 37 60
r 1.62976 1 2 tcp 1540 ------- 0 0.0 2.0 23 38
+ 1.62976 2 1 ack 40 ------- 0 2.0 0.0 23 62
- 1.62976 2 1 ack 40 ------- 0 2.0 0.0 23 62
r 1.63824 0 1 tcp 1540 ------- 0 0.0 2.0 32 52
+ 1.63824 1 2 tcp 1540 ------- 0 0.0 2.0 32 52
- 1.63984 0 1 tcp 1540 ------- 0 0.0 2.0 38 61
r 1.64112 2 1 ack 40 ------- 0 2.0 0.0 21 56
+ 1.64112 1 0 ack 40 ------- 0 2.0 0.0 21 56
- 1.64112 1 0 ack 40 ------- 0 2.0 0.0 21 56
- 1.64368 1 2 tcp 1540 ------- 0 0.0 2.0 29 45
r 1.65056 0 1 tcp 1540 ------- 0 0.0 2.0 33 54
+ 1.65056 1 2 tcp 1540 ------- 0 0.0 2.0 33 54
r 1.65216 1 0 ack 40 ------- 0 2.0 0.0 19 50
+ 1.65216 0 1 tcp 1540 ------- 0 0.0 2.0 39 63
- 1.65216 0 1 tcp 1540 ------- 0 0.0 2.0 39 63
r 1.6544 1 2 tcp 1540 ------- 0 0.0 2.0 24 39
+ 1.6544 2 1 ack 40 ------- 0 2.0 0.0 24 64
- 1.6544 2 1 ack 40 ------- 0 2.0 0.0 24 64
r 1.66288 0 1 tcp 1540 ------- 0 0.0 2.0 34 55
+ 1.66288 1 2 tcp 1540 ------- 0 0.0 2.0 34 55
r 1.66576 2 1 ack 40 ------- 0 2.0 0.0 22 59
+ 1.66576 1 0 ack 40 ------- 0 2.0 0.0 22 59
- 1.66576 1 0 ack 40 ------- 0 2.0 0.0 22 59
- 1.66832 1 2 tcp 1540 ------- 0 0.0 2.0 31 51
r 1.6752 0 1 tcp 1540 ------- 0 0.0 2.0 35 57
+ 1.6752 1 2 tcp 1540 ------- 0 0.0 2.0 35 57
r 1.6768 1 0 ack 40 ------- 0 2.0 0.0 20 53
+ 1.6768 0 1 tcp 1540 ------- 0 0.0 2.0 40 65
- 1.6768 0 1 tcp 1540 ------- 0 0.0 2.0 40 65
r 1.67904 1 2 tcp 1540 ------- 0 0.0 2.0 25 40
+ 1.67904 2 1 ack 40 ------- 0 2.0 0.0 25 66
- 1.67904 2 1 ack 40 ------- 0 2.0 0.0 25 66
r 1.68752 0 1 tcp 1540 ------- 0 0.0 2.0 36 58
+ 1.68752 1 2 tcp 1540 ------- 0 0.0 2.0 36 58
r 1.6904 2 1 ack 40 ------- 0 2.0 0.0 23 62
+ 1.6904 1 0 ack 40 ------- 0 2.0 0.0 23 62
- 1.6904 1 0 ack 40 ------- 0 2.0 0.0 23 62
- 1.69296 1 2 tcp 1540 ------- 0 0.0 2.0 32 52
r 1.69984 0 1 tcp 1540 ------- 0 0.0 2.0 37 60
+ 1.69984 1 2 tcp 1540 ------- 0 0.0 2.0 37 60
r 1.70144 1 0 ack 40 ------- 0 2.0 0.0 21 56
+ 1.70144 0 1 tcp 1540 ------- 0 0.0 2.0 41 67
- 1.70144 0 1 tcp 1540 ------- 0 0.0 2.0 41 67
r 1.70368 1 2 tcp 1540 ------- 0 0.0 2.0 27 42
+ 1.70368 2 1 ack 40 ------- 0 2.0 0.0 25 68
- 1.70368 2 1 ack 40 ------- 0 2.0 0.0 25 68
r 1.71216 0 1 tcp 1540 ------- 0 0.0 2.0 38 61
+ 1.71216 1 2 tcp 1540 ------- 0 0.0 2.0 38 61
d 1.71216 1 2 tcp 1540 ------- 0 0.0 2.0 38 61
r 1.71504 2 1 ack 40 ------- 0 2.0 0.0 24 64
+ 1.71504 1 0 ack 40 ------- 0 2.0 0.0 24 64
- 1.71504 1 0 ack 40 ------- 0 2.0 0.0 24 64
- 1.7176 1 2 tcp 1540 ------- 0 0.0 2.0 33 54
r 1.72448 0 1 tcp 1540 ------- 0 0.0 2.0 39 63
+ 1.72448 1 2 tcp 1540 ------- 0 0.0 2.0 39 63
r 1.72608 1 0 ack 40 ------- 0 2.0 0.0 22 59
+ 1.72608 0 1 tcp 1540 ------- 0 0.0 2.0 42 69
- 1.72608 0 1 tcp 1540 ------- 0 0.0 2.0 42 69
r 1.72832 1 2 tcp 1540 ------- 0 0.0 2.0 29 45
+ 1.72832 2 1 ack 40 ------- 0 2.0 0.0 25 70
- 1.72832 2 1 ack 40 ------- 0 2.0 0.0 25 70
r 1.73968 2 1 ack 40 ------- 0 2.0 0.0 25 66
+ 1.73968 1 0 ack 40 ------- 0 2.0 0.0 25 66
- 1.73968 1 0 ack 40 ------- 0 2.0 0.0 25 66
- 1.74224 1 2 tcp 1540 ------- 0 0.0 2.0 34 55
r 1.74912 0 1 tcp 1540 ------- 0 0.0 2.0 40 65
+ 1.74912 1 2 tcp 1540 ------- 0 0.0 2.0 40 65
r 1.75072 1 0 ack 40 ------- 0 2.0 0.0 23 62
+ 1.75072 0 1 tcp 1540 ------- 0 0.0 2.0 43 71
- 1.75072 0 1 tcp 1540 ------- 0 0.0 2.0 43 71
r 1.75296 1 2 tcp 1540 ------- 0 0.0 2.0 31 51
+ 1.75296 2 1 ack 40 ------- 0 2.0 0.0 25 72
- 1.75296 2 1 ack 40 ------- 0 2.0 0.0 25 72
r 1.76432 2 1 ack 40 ------- 0 2.0 0.0 25 68
+ 1.76432 1 0 ack 40 ------- 0 2.0 0.0 25 68
- 1.76432 1 0 ack 40 ------- 0 2.0 0.0 25 68
- 1.76688 1 2 tcp 1540 ------- 0 0.0 2.0 35 57
r 1.77376 0 1 tcp 1540 ------- 0 0.0 2.0 41 67
+ 1.77376 1 2 tcp 1540 ------- 0 0.0 2.0 41 67
r 1.77536 1 0 ack 40 ------- 0 2.0 0.0 24 64
+ 1.77536 0 1 tcp 1540 ------- 0 0.0 2.0 44 73
- 1.77536 0 1 tcp 1540 ------- 0 0.0 2.0 44 73
r 1.7776 1 2 tcp 1540 ------- 0 0.0 2.0 32 52
+ 1.7776 2 1 ack 40 ------- 0 2.0 0.0 25 74
- 1.7776 2 1 ack 40 ------- 0 2.0 0.0 25 74
r 1.78896 2 1 ack 40 ------- 0 2.0 0.0 25 70
+ 1.78896 1 0 ack 40 ------- 0 2.0 0.0 25 70
- 1.78896 1 0 ack 40 ------- 0 2.0 0.0 25 70
- 1.79152 1 2 tcp 1540 ------- 0 0.0 2.0 36 58
r 1.7984 0 1 tcp 1540 ------- 0 0.0 2.0 42 69
+ 1.7984 1 2 tcp 1540 ------- 0 0.0 2.0 42 69
r 1.8 1 0 ack 40 ------- 0 2.0 0.0 25 66
+ 1.8 0 1 tcp 1540 ------- 0 0.0 2.0 45 75
- 1.8 0 1 tcp 1540 ------- 0 0.0 2.0 45 75
r 1.80224 1 2 tcp 1540 ------- 0 0.0 2.0 33 54
+ 1.80224 2 1 ack 40 ------- 0 2.0 0.0 25 76
- 1.80224 2 1 ack 40 ------- 0 2.0 0.0 25 76
r 1.8136 2 1 ack 40 ------- 0 2.0 0.0 25 72
+ 1.8136 1 0 ack 40 ------- 0 2.0 0.0 25 72
- 1.8136 1 0 ack 40 ------- 0 2.0 0.0 25 72
- 1.81616 1 2 tcp 1540 ------- 0 0.0 2.0 37 60
r 1.82304 0 1 tcp 1540 ------- 0 0.0 2.0 43 71
+ 1.82304 1 2 tcp 1540 ------- 0 0.0 2.0 43 71
r 1.82464 1 0 ack 40 ------- 0 2.0 0.0 25 68
r 1.82688 1 2 tcp 1540 ------- 0 0.0 2.0 34 55
+ 1.82688 2 1 ack 40 ------- 0 2.0 0.0 25 77
- 1.82688 2 1 ack 40 ------- 0 2.0 0.0 25 77
r 1.83824 2 1 ack 40 ------- 0 2.0 0.0 25 74
+ 1.83824 1 0 ack 40 ------- 0 2.0 0.0 25 74
- 1.83824 1 0 ack 40 ------- 0 2.0 0.0 25 74
- 1.8408 1 2 tcp 1540 ------- 0 0.0 2.0 39 63
r 1.84768 0 1 tcp 1540 ------- 0 0.0 2.0 44 73
+ 1.84768 1 2 tcp 1540 ------- 0 0.0 2.0 44 73
r 1.84928 1 0 ack 40 ------- 0 2.0 0.0 25 70
r 1.85152 1 2 tcp 1540 ------- 0 0.0 2.0 35 57
+ 1.85152 2 1 ack 40 ------- 0 2.0 0.0 25 78
- 1.85152 2 1 ack 40 ------- 0 2.0 0.0 25 78
r 1.86288 2 1 ack 40 ------- 0 2.0 0.0 25 76
+ 1.86288 1 0 ack 40 ------- 0 2.0 0.0 25 76
- 1.86288 1 0 ack 40 ------- 0 2.0 0.0 25 76
- 1.86544 1 2 tcp 1540 ------- 0 0.0 2.0 40 65
r 1.87232 0 1 tcp 1540 ------- 0 0.0 2.0 45 75
+ 1.87232 1 2 tcp 1540 ------- 0 0.0 2.0 45 75
r 1.87392 1 0 ack 40 ------- 0 2.0 0.0 25 72
+ 1.87392 0 1 tcp 1540 ---A--- 0 0.0 2.0 26 79
- 1.87392 0 1 tcp 1540 ---A--- 0 0.0 2.0 26 79
r 1.87616 1 2 tcp 1540 ------- 0 0.0 2.0 36 58
+ 1.87616 2 1 ack 40 ------- 0 2.0 0.0 25 80
- 1.87616 2 1 ack 40 ------- 0 2.0 0.0 25 80
r 1.88752 2 1 ack 40 ------- 0 2.0 0.0 25 77
+ 1.88752 1 0 ack 40 ------- 0 2.0 0.0 25 77
- 1.88752 1 0 ack 40 ------- 0 2.0 0.0 25 77
- 1.89008 1 2 tcp 1540 ------- 0 0.0 2.0 41 67
r 1.89856 1 0 ack 40 ------- 0 2.0 0.0 25 74
r 1.9008 1 2 tcp 1540 ------- 0 0.0 2.0 37 60
+ 1.9008 2 1 ack 40 ------- 0 2.0 0.0 25 81
- 1.9008 2 1 ack 40 ------- 0 2.0 0.0 25 81
r 1.91216 2 1 ack 40 ------- 0 2.0 0.0 25 78
+ 1.91216 1 0 ack 40 ------- 0 2.0 0.0 25 78
- 1.91216 1 0 ack 40 ------- 0 2.0 0.0 25 78
- 1.91472 1 2 tcp 1540 ------- 0 0.0 2.0 42 69
r 1.9232 1 0 ack 40 ------- 0 2.0 0.0 25 76
r 1.92544 1 2 tcp 1540 ------- 0 0.0 2.0 39 63
+ 1.92544 2 1 ack 40 ------- 0 2.0 0.0 25 82
- 1.92544 2 1 ack 40 ------- 0 2.0 0.0 25 82
r 1.9368 2 1 ack 40 ------- 0 2.0 0.0 25 80
+ 1.9368 1 0 ack 40 ------- 0 2.0 0.0 25 80
- 1.9368 1 0 ack 40 ------- 0 2.0 0.0 25 80
- 1.93936 1 2 tcp 1540 ------- 0 0.0 2.0 43 71
r 1.94624 0 1 tcp 1540 ---A--- 0 0.0 2.0 26 79
+ 1.94624 1 2 tcp 1540 ---A--- 0 0.0 2.0 26 79
r 1.94784 1 0 ack 40 ------- 0 2.0 0.0 25 77
r 1.95008 1 2 tcp 1540 ------- 0 0.0 2.0 40 65
+ 1.95008 2 1 ack 40 ------- 0 2.0 0.0 25 83
- 1.95008 2 1 ack 40 ------- 0 2.0 0.0 25 83
r 1.96144 2 1 ack 40 ------- 0 2.0 0.0 25 81
+ 1.96144 1 0 ack 40 ------- 0 2.0 0.0 25 81
- 1.96144 1 0 ack 40 ------- 0 2.0 0.0 25 81
- 1.964 1 2 tcp 1540 ------- 0 0.0 2.0 44 73
r 1.97248 1 0 ack 40 ------- 0 2.0 0.0 25 78
r 1.97472 1 2 tcp 1540 ------- 0 0.0 2.0 41 67
+ 1.97472 2 1 ack 40 ------- 0 2.0 0.0 25 84
- 1.97472 2 1 ack 40 ------- 0 2.0 0.0 25 84
r 1.98608 2 1 ack 40 ------- 0 2.0 0.0 25 82
+ 1.98608 1 0 ack 40 ------- 0 2.0 0.0 25 82
- 1.98608 1 0 ack 40 ------- 0 2.0 0.0 25 82
- 1.98864 1 2 tcp 1540 ------- 0 0.0 2.0 45 75
r 1.99712 1 0 ack 40 ------- 0 2.0 0.0 25 80
r 1.99936 1 2 tcp 1540 ------- 0 0.0 2.0 42 69
+ 1.99936 2 1 ack 40 ------- 0 2.0 0.0 25 85
- 1.99936 2 1 ack 40 ------- 0 2.0 0.0 25 85
r 2.01072 2 1 ack 40 ------- 0 2.0 0.0 25 83
+ 2.01072 1 0 ack 40 ------- 0 2.0 0.0 25 83
- 2.01072 1 0 ack 40 ------- 0 2.0 0.0 25 83
- 2.01328 1 2 tcp 1540 ---A--- 0 0.0 2.0 26 79
r 2.02176 1 0 ack 40 ------- 0 2.0 0.0 25 81
r 2.024 1 2 tcp 1540 ------- 0 0.0 2.0 43 71
+ 2.024 2 1 ack 40 ------- 0 2.0 0.0 25 86
- 2.024 2 1 ack 40 ------- 0 2.0 0.0 25 86
r 2.03536 2 1 ack 40 ------- 0 2.0 0.0 25 84
+ 2.03536 1 0 ack 40 ------- 0 2.0 0.0 25 84
- 2.03536 1 0 ack 40 ------- 0 2.0 0.0 25 84
r 2.0464 1 0 ack 40 ------- 0 2.0 0.0 25 82
r 2.04864 1 2 tcp 1540 ------- 0 0.0 2.0 44 73
+ 2.04864 2 1 ack 40 ------- 0 2.0 0.0 25 87
- 2.04864 2 1 ack 40 ------- 0 2.0 0.0 25 87
r 2.06 2 1 ack 40 ------- 0 2.0 0.0 25 85
+ 2.06 1 0 ack 40 ------- 0 2.0 0.0 25 85
- 2.06 1 0 ack 40 ------- 0 2.0 0.0 25 85
r 2.07104 1 0 ack 40 ------- 0 2.0 0.0 25 83
r 2.07328 1 2 tcp 1540 ------- 0 0.0 2.0 45 75
+ 2.07328 2 1 ack 40 ------- 0 2.0 0.0 25 88
- 2.07328 2 1 ack 40 ------- 0 2.0 0.0 25 88
r 2.08464 2 1 ack 40 ------- 0 2.0 0.0 25 86
+ 2.08464 1 0 ack 40 ------- 0 2.0 0.0 25 86
- 2.08464 1 0 ack 40 ------- 0 2.0 0.0 25 86
r 2.09568 1 0 ack 40 ------- 0 2.0 0.0 25 84
r 2.09792 1 2 tcp 1540 ---A--- 0 0.0 2.0 26 79
+ 2.09792 2 1 ack 40 ------- 0 2.0 0.0 27 89
- 2.09792 2 1 ack 40 ------- 0 2.0 0.0 27 89
r 2.10928 2 1 ack 40 ------- 0 2.0 0.0 25 87
+ 2.10928 1 0 ack 40 ------- 0 2.0 0.0 25 87
- 2.10928 1 0 ack 40 ------- 0 2.0 0.0 25 87
r 2.12032 1 0 ack 40 ------- 0 2.0 0.0 25 85
r 2.13392 2 1 ack 40 ------- 0 2.0 0.0 25 88
+ 2.13392 1 0 ack 40 ------- 0 2.0 0.0 25 88
- 2.13392 1 0 ack 40 ------- 0 2.0 0.0 25 88
r 2.14496 1 0 ack 40 ------- 0 2.0 0.0 25 86
r 2.15856 2 1 ack 40 ------- 0 2.0 0.0 27 89
+ 2.15856 1 0 ack 40 ------- 0 2.0 0.0 27 89
- 2.15856 1 0 ack 40 ------- 0 2.0 0.0 27 89
r 2.1696 1 0 ack 40 ------- 0 2.0 0.0 25 87
r 2.19424 1 0 ack 40 ------- 0 2.0 0.0 25 88
r 2.21888 1 0 ack 40 ------- 0 2.0 0.0 27 89
+ 2.21888 0 1 tcp 1540 ------- 0 0.0 2.0 28 90
- 2.21888 0 1 tcp 1540 ------- 0 0.0 2.0 28 90
+ 2.21888 0 1 tcp 1540 ------- 0 0.0 2.0 29 91
- 2.2312 0 1 tcp 1540 ------- 0 0.0 2.0 29 91
r 2.2912 0 1 tcp 1540 ------- 0 0.0 2.0 28 90
+ 2.2912 1 2 tcp 1540 ------- 0 0.0 2.0 28 90
- 2.2912 1 2 tcp 1540 ------- 0 0.0 2.0 28 90
r 2.30352 0 1 tcp 1540 ------- 0 0.0 2.0 29 91
+ 2.30352 1 2 tcp 1540 ------- 0 0.0 2.0 29 91
- 2.31584 1 2 tcp 1540 ------- 0 0.0 2.0 29 91
r 2.37584 1 2 tcp 1540 ------- 0 0.0 2.0 28 90
+ 2.37584 2 1 ack 40 ------- 0 2.0 0.0 29 92
- 2.37584 2 1 ack 40 ------- 0 2.0 0.0 29 92
r 2.40048 1 2 tcp 1540 ------- 0 0.0 2.0 29 91
+ 2.40048 2 1 ack 40 ------- 0 2.0 0.0 29 93
- 2.40048 2 1 ack 40 ------- 0 2.0 0.0 29 93
r 2.43648 2 1 ack 40 ------- 0 2.0 0.0 29 92
+ 2.43648 1 0 ack 40 ------- 0 2.0 0.0 29 92
- 2.43648 1 0 ack 40 ------- 0 2.0 0.0 29 92
r 2.46112 2 1 ack 40 ------- 0 2.0 0.0 29 93
+ 2.46112 1 0 ack 40 ------- 0 2.0 0.0 29 93
- 2.46112 1 0 ack 40 ------- 0 2.0 0.0 29 93
r 2.4968 1 0 ack 40 ------- 0 2.0 0.0 29 92
+ 2.4968 0 1 tcp 1540 ------- 0 0.0 2.0 30 94
- 2.4968 0 1 tcp 1540 ------- 0 0.0 2.0 30 94
+ 2.4968 0 1 tcp 1540 ------- 0 0.0 2.0 31 95
+ 2.4968 0 1 tcp 1540 ------- 0 0.0 2.0 32 96
- 2.50912 0 1 tcp 1540 ------- 0 0.0 2.0 31 95
- 2.52144 0 1 tcp 1540 ------- 0 0.0 2.0 32 96
r 2.52144 1 0 ack 40 ------- 0 2.0 0.0 29 93
+ 2.52144 0 1 tcp 1540 ------- 0 0.0 2.0 33 97
- 2.53376 0 1 tcp 1540 ------- 0 0.0 2.0 33 97
r 2.56912 0 1 tcp 1540 ------- 0 0.0 2.0 30 94
+ 2.56912 1 2 tcp 1540 ------- 0 0.0 2.0 30 94
- 2.56912 1 2 tcp 1540 ------- 0 0.0 2.0 30 94
r 2.58144 0 1 tcp 1540 ------- 0 0.0 2.0 31 95
+ 2.58144 1 2 tcp 1540 ------- 0 0.0 2.0 31 95
r 2.59376 0 1 tcp 1540 ------- 0 0.0 2.0 32 96
+ 2.59376 1 2 tcp 1540 ------- 0 0.0 2.0 32 96
- 2.59376 1 2 tcp 1540 ------- 0 0.0 2.0 31 95
r 2.60608 0 1 tcp 1540 ------- 0 0.0 2.0 33 97
+ 2.60608 1 2 tcp 1540 ------- 0 0.0 2.0 33 97
- 2.6184 1 2 tcp 1540 ------- 0 0.0 2.0 32 96
- 2.64304 1 2 tcp 1540 ------- 0 0.0 2.0 33 97
r 2.65376 1 2 tcp 1540 ------- 0 0.0 2.0 30 94
+ 2.65376 2 1 ack 40 ------- 0 2.0 0.0 37 98
- 2.65376 2 1 ack 40 ------- 0 2.0 0.0 37 98
r 2.6784 1 2 tcp 1540 ------- 0 0.0 2.0 31 95
+ 2.6784 2 1 ack 40 ------- 0 2.0 0.0 37 99
- 2.6784 2 1 ack 40 ------- 0 2.0 0.0 37 99
r 2.70304 1 2 tcp 1540 ------- 0 0.0 2.0 32 96
+ 2.70304 2 1 ack 40 ------- 0 2.0 0.0 37 100
- 2.70304 2 1 ack 40 ------- 0 2.0 0.0 37 100
r 2.7144 2 1 ack 40 ------- 0 2.0 0.0 37 98
+ 2.7144 1 0 ack 40 ------- 0 2.0 0.0 37 98
- 2.7144 1 0 ack 40 ------- 0 2.0 0.0 37 98
r 2.72768 1 2 tcp 1540 ------- 0 0.0 2.0 33 97
+ 2.72768 2 1 ack 40 ------- 0 2.0 0.0 37 101
- 2.72768 2 1 ack 40 ------- 0 2.0 0.0 37 101
r 2.73904 2 1 ack 40 ------- 0 2.0 0.0 37 99
+ 2.73904 1 0 ack 40 ------- 0 2.0 0.0 37 99
- 2.73904 1 0 ack 40 ------- 0 2.0 0.0 37 99
r 2.76368 2 1 ack 40 ------- 0 2.0 0.0 37 100
+ 2.76368 1 0 ack 40 ------- 0 2.0 0.0 37 100
- 2.76368 1 0 ack 40 ------- 0 2.0 0.0 37 100
r 2.77472 1 0 ack 40 ------- 0 2.0 0.0 37 98
+ 2.77472 0 1 tcp 1540 ------- 0 0.0 2.0 38 102
- 2.77472 0 1 tcp 1540 ------- 0 0.0 2.0 38 102
+ 2.77472 0 1 tcp 1540 ------- 0 0.0 2.0 39 103
+ 2.77472 0 1 tcp 1540 ------- 0 0.0 2.0 40 104
+ 2.77472 0 1 tcp 1540 ------- 0 0.0 2.0 41 105
- 2.78704 0 1 tcp 1540 ------- 0 0.0 2.0 39 103
r 2.78832 2 1 ack 40 ------- 0 2.0 0.0 37 101
+ 2.78832 1 0 ack 40 ------- 0 2.0 0.0 37 101
- 2.78832 1 0 ack 40 ------- 0 2.0 0.0 37 101
- 2.79936 0 1 tcp 1540 ------- 0 0.0 2.0 40 104
r 2.79936 1 0 ack 40 ------- 0 2.0 0.0 37 99
+ 2.79936 0 1 tcp 1540 ------- 0 0.0 2.0 42 106
- 2.81168 0 1 tcp 1540 ------- 0 0.0 2.0 41 105
- 2.824 0 1 tcp 1540 ------- 0 0.0 2.0 42 106
r 2.824 1 0 ack 40 ------- 0 2.0 0.0 37 100
+ 2.824 0 1 tcp 1540 ------- 0 0.0 2.0 43 107
- 2.83632 0 1 tcp 1540 ------- 0 0.0 2.0 43 107
r 2.84704 0 1 tcp 1540 ------- 0 0.0 2.0 38 102
+ 2.84704 1 2 tcp 1540 ------- 0 0.0 2.0 38 102
- 2.84704 1 2 tcp 1540 ------- 0 0.0 2.0 38 102
r 2.84864 1 0 ack 40 ------- 0 2.0 0.0 37 101
r 2.85936 0 1 tcp 1540 ------- 0 0.0 2.0 39 103
+ 2.85936 1 2 tcp 1540 ------- 0 0.0 2.0 39 103
r 2.87168 0 1 tcp 1540 ------- 0 0.0 2.0 40 104
+ 2.87168 1 2 tcp 1540 ------- 0 0.0 2.0 40 104
- 2.87168 1 2 tcp 1540 ------- 0 0.0 2.0 39 103
r 2.884 0 1 tcp 1540 ------- 0 0.0 2.0 41 105
+ 2.884 1 2 tcp 1540 ------- 0 0.0 2.0 41 105
r 2.89632 0 1 tcp 1540 ------- 0 0.0 2.0 42 106
+ 2.89632 1 2 tcp 1540 ------- 0 0.0 2.0 42 106
- 2.89632 1 2 tcp 1540 ------- 0 0.0 2.0 40 104
r 2.90864 0 1 tcp 1540 ------- 0 0.0 2.0 43 107
+ 2.90864 1 2 tcp 1540 ------- 0 0.0 2.0 43 107
- 2.92096 1 2 tcp 1540 ------- 0 0.0 2.0 41 105
r 2.93168 1 2 tcp 1540 ------- 0 0.0 2.0 38 102
+ 2.93168 2 1 ack 40 ------- 0 2.0 0.0 45 108
- 2.93168 2 1 ack 40 ------- 0 2.0 0.0 45 108
- 2.9456 1 2 tcp 1540 ------- 0 0.0 2.0 42 106
r 2.95632 1 2 tcp 1540 ------- 0 0.0 2.0 39 103
+ 2.95632 2 1 ack 40 ------- 0 2.0 0.0 45 109
- 2.95632 2 1 ack 40 ------- 0 2.0 0.0 45 109
- 2.97024 1 2 tcp 1540 ------- 0 0.0 2.0 43 107
r 2.98096 1 2 tcp 1540 ------- 0 0.0 2.0 40 104
+ 2.98096 2 1 ack 40 ------- 0 2.0 0.0 45 110
- 2.98096 2 1 ack 40 ------- 0 2.0 0.0 45 110
r 2.99232 2 1 ack 40 ------- 0 2.0 0.0 45 108
+ 2.99232 1 0 ack 40 ------- 0 2.0 0.0 45 108
- 2.99232 1 0 ack 40 ------- 0 2.0 0.0 45 108
r 3.0056 1 2 tcp 1540 ------- 0 0.0 2.0 41 105
+ 3.0056 2 1 ack 40 ------- 0 2.0 0.0 45 111
- 3.0056 2 1 ack 40 ------- 0 2.0 0.0 45 111
r 3.01696 2 1 ack 40 ------- 0 2.0 0.0 45 109
+ 3.01696 1 0 ack 40 ------- 0 2.0 0.0 45 109
- 3.01696 1 0 ack 40 ------- 0 2.0 0.0 45 109
r 3.03024 1 2 tcp 1540 ------- 0 0.0 2.0 42 106