+ 0.3 1 0 tcp 40 ------- 1 1.0 7.0 0 0
- 0.3 1 0 tcp 40 ------- 1 1.0 7.0 0 0
+ 0.3 2 0 tcp 1500 ------- 2 2.0 8.0 0 1
- 0.3 2 0 tcp 1500 ------- 2 2.0 8.0 0 1
r 0.36032 1 0 tcp 40 ------- 1 1.0 7.0 0 0
+ 0.36032 0 3 tcp 40 ------- 1 1.0 7.0 0 0
- 0.36032 0 3 tcp 40 ------- 1 1.0 7.0 0 0
r 0.372 2 0 tcp 1500 ------- 2 2.0 8.0 0 1
+ 0.372 0 3 tcp 1500 ------- 2 2.0 8.0 0 1
- 0.372 0 3 tcp 1500 ------- 2 2.0 8.0 0 1
r 0.42096 0 3 tcp 40 ------- 1 1.0 7.0 0 0
h 0.42096 3 11 tcp 40 ------- 1 1.0 7.0 0 0
r 0.456 0 3 tcp 1500 ------- 2 2.0 8.0 0 1
h 0.456 3 11 tcp 1500 ------- 2 2.0 8.0 0 1
+ 0.47096 3 11 tcp 40 ------- 1 1.0 7.0 0 0
- 0.47096 3 11 tcp 40 ------- 1 1.0 7.0 0 0
d 0.470964 10 11 tcp 40 ------- 1 1.0 7.0 0 0
d 0.470964 9 11 tcp 40 ------- 1 1.0 7.0 0 0
d 0.470964 8 11 tcp 40 ------- 1 1.0 7.0 0 0
d 0.470964 6 11 tcp 40 ------- 1 1.0 7.0 0 0
d 0.470964 5 11 tcp 40 ------- 1 1.0 7.0 0 0
d 0.470964 4 11 tcp 40 ------- 1 1.0 7.0 0 0
+ 0.506 3 11 tcp 1500 ------- 2 2.0 8.0 0 1
- 0.506 3 11 tcp 1500 ------- 2 2.0 8.0 0 1
d 0.506004 10 11 tcp 1500 ------- 2 2.0 8.0 0 1
d 0.506004 9 11 tcp 1500 ------- 2 2.0 8.0 0 1
d 0.506004 7 11 tcp 1500 ------- 2 2.0 8.0 0 1
d 0.506004 6 11 tcp 1500 ------- 2 2.0 8.0 0 1
d 0.506004 5 11 tcp 1500 ------- 2 2.0 8.0 0 1
d 0.506004 4 11 tcp 1500 ------- 2 2.0 8.0 0 1
r 0.520964 11 7 tcp 40 ------- 1 1.0 7.0 0 0
h 0.520964 7 11 ack 40 ------- 1 7.0 1.0 0 2
r 0.556004 11 8 tcp 1500 ------- 2 2.0 8.0 0 1
h 0.556004 8 11 ack 40 ------- 2 8.0 2.0 0 3
+ 0.570964 7 11 ack 40 ------- 1 7.0 1.0 0 2
- 0.570964 7 11 ack 40 ------- 1 7.0 1.0 0 2
d 0.570968 10 11 ack 40 ------- 1 7.0 1.0 0 2
d 0.570968 9 11 ack 40 ------- 1 7.0 1.0 0 2
d 0.570968 8 11 ack 40 ------- 1 7.0 1.0 0 2
d 0.570968 6 11 ack 40 ------- 1 7.0 1.0 0 2
d 0.570968 5 11 ack 40 ------- 1 7.0 1.0 0 2
d 0.570968 4 11 ack 40 ------- 1 7.0 1.0 0 2
+ 0.606004 8 11 ack 40 ------- 2 8.0 2.0 0 3
- 0.606004 8 11 ack 40 ------- 2 8.0 2.0 0 3
d 0.606008 10 11 ack 40 ------- 2 8.0 2.0 0 3
d 0.606008 9 11 ack 40 ------- 2 8.0 2.0 0 3
d 0.606008 7 11 ack 40 ------- 2 8.0 2.0 0 3
d 0.606008 6 11 ack 40 ------- 2 8.0 2.0 0 3
d 0.606008 5 11 ack 40 ------- 2 8.0 2.0 0 3
d 0.606008 4 11 ack 40 ------- 2 8.0 2.0 0 3
r 0.620968 11 3 ack 40 ------- 1 7.0 1.0 0 2
+ 0.620968 3 0 ack 40 ------- 1 7.0 1.0 0 2
- 0.620968 3 0 ack 40 ------- 1 7.0 1.0 0 2
r 0.656008 11 3 ack 40 ------- 2 8.0 2.0 0 3
+ 0.656008 3 0 ack 40 ------- 2 8.0 2.0 0 3
- 0.656008 3 0 ack 40 ------- 2 8.0 2.0 0 3
r 0.681608 3 0 ack 40 ------- 1 7.0 1.0 0 2
+ 0.681608 0 1 ack 40 ------- 1 7.0 1.0 0 2
- 0.681608 0 1 ack 40 ------- 1 7.0 1.0 0 2
r 0.716648 3 0 ack 40 ------- 2 8.0 2.0 0 3
+ 0.716648 0 2 ack 40 ------- 2 8.0 2.0 0 3
- 0.716648 0 2 ack 40 ------- 2 8.0 2.0 0 3
r 0.741928 0 1 ack 40 ------- 1 7.0 1.0 0 2
+ 0.741928 1 0 tcp 1540 ------- 1 1.0 7.0 1 4
- 0.741928 1 0 tcp 1540 ------- 1 1.0 7.0 1 4
+ 0.741928 1 0 tcp 1540 ------- 1 1.0 7.0 2 5
- 0.754248 1 0 tcp 1540 ------- 1 1.0 7.0 2 5
r 0.776968 0 2 ack 40 ------- 2 8.0 2.0 0 3
+ 0.776968 2 0 tcp 1500 ------- 2 2.0 8.0 1 6
- 0.776968 2 0 tcp 1500 ------- 2 2.0 8.0 1 6
r 0.814248 1 0 tcp 1540 ------- 1 1.0 7.0 1 4
+ 0.814248 0 3 tcp 1540 ------- 1 1.0 7.0 1 4
- 0.814248 0 3 tcp 1540 ------- 1 1.0 7.0 1 4
r 0.826568 1 0 tcp 1540 ------- 1 1.0 7.0 2 5
+ 0.826568 0 3 tcp 1540 ------- 1 1.0 7.0 2 5
- 0.838888 0 3 tcp 1540 ------- 1 1.0 7.0 2 5
r 0.848968 2 0 tcp 1500 ------- 2 2.0 8.0 1 6
+ 0.848968 0 3 tcp 1500 ------- 2 2.0 8.0 1 6
- 0.863528 0 3 tcp 1500 ------- 2 2.0 8.0 1 6
r 0.898888 0 3 tcp 1540 ------- 1 1.0 7.0 1 4
h 0.898888 3 11 tcp 1540 ------- 1 1.0 7.0 1 4
r 0.923528 0 3 tcp 1540 ------- 1 1.0 7.0 2 5
h 0.923528 3 11 tcp 1540 ------- 1 1.0 7.0 2 5
r 0.947528 0 3 tcp 1500 ------- 2 2.0 8.0 1 6
h 0.947528 3 11 tcp 1500 ------- 2 2.0 8.0 1 6
+ 0.948888 3 11 tcp 1540 ------- 1 1.0 7.0 1 4
- 0.948888 3 11 tcp 1540 ------- 1 1.0 7.0 1 4
d 0.948892 10 11 tcp 1540 ------- 1 1.0 7.0 1 4
d 0.948892 9 11 tcp 1540 ------- 1 1.0 7.0 1 4
d 0.948892 8 11 tcp 1540 ------- 1 1.0 7.0 1 4
d 0.948892 6 11 tcp 1540 ------- 1 1.0 7.0 1 4
d 0.948892 5 11 tcp 1540 ------- 1 1.0 7.0 1 4
d 0.948892 4 11 tcp 1540 ------- 1 1.0 7.0 1 4
+ 0.973528 3 11 tcp 1540 ------- 1 1.0 7.0 2 5
- 0.973528 3 11 tcp 1540 ------- 1 1.0 7.0 2 5
d 0.973532 10 11 tcp 1540 ------- 1 1.0 7.0 2 5
d 0.973532 9 11 tcp 1540 ------- 1 1.0 7.0 2 5
d 0.973532 8 11 tcp 1540 ------- 1 1.0 7.0 2 5
d 0.973532 6 11 tcp 1540 ------- 1 1.0 7.0 2 5
d 0.973532 5 11 tcp 1540 ------- 1 1.0 7.0 2 5
d 0.973532 4 11 tcp 1540 ------- 1 1.0 7.0 2 5
+ 0.997528 3 11 tcp 1500 ------- 2 2.0 8.0 1 6
- 0.997528 3 11 tcp 1500 ------- 2 2.0 8.0 1 6
d 0.997532 10 11 tcp 1500 ------- 2 2.0 8.0 1 6
d 0.997532 9 11 tcp 1500 ------- 2 2.0 8.0 1 6
d 0.997532 7 11 tcp 1500 ------- 2 2.0 8.0 1 6
d 0.997532 6 11 tcp 1500 ------- 2 2.0 8.0 1 6
d 0.997532 5 11 tcp 1500 ------- 2 2.0 8.0 1 6
d 0.997532 4 11 tcp 1500 ------- 2 2.0 8.0 1 6
r 0.998892 11 7 tcp 1540 ------- 1 1.0 7.0 1 4
h 0.998892 7 11 ack 40 ------- 1 7.0 1.0 1 7
r 1.023532 11 7 tcp 1540 ------- 1 1.0 7.0 2 5
h 1.023532 7 11 ack 40 ------- 1 7.0 1.0 2 8
r 1.047532 11 8 tcp 1500 ------- 2 2.0 8.0 1 6
h 1.047532 8 11 ack 40 ------- 2 8.0 2.0 1 9
+ 1.048892 7 11 ack 40 ------- 1 7.0 1.0 1 7
- 1.048892 7 11 ack 40 ------- 1 7.0 1.0 1 7
d 1.048896 10 11 ack 40 ------- 1 7.0 1.0 1 7
d 1.048896 9 11 ack 40 ------- 1 7.0 1.0 1 7
d 1.048896 8 11 ack 40 ------- 1 7.0 1.0 1 7
d 1.048896 6 11 ack 40 ------- 1 7.0 1.0 1 7
d 1.048896 5 11 ack 40 ------- 1 7.0 1.0 1 7
d 1.048896 4 11 ack 40 ------- 1 7.0 1.0 1 7
+ 1.073532 7 11 ack 40 ------- 1 7.0 1.0 2 8
- 1.073532 7 11 ack 40 ------- 1 7.0 1.0 2 8
d 1.073536 10 11 ack 40 ------- 1 7.0 1.0 2 8
d 1.073536 9 11 ack 40 ------- 1 7.0 1.0 2 8
d 1.073536 8 11 ack 40 ------- 1 7.0 1.0 2 8
d 1.073536 6 11 ack 40 ------- 1 7.0 1.0 2 8
d 1.073536 5 11 ack 40 ------- 1 7.0 1.0 2 8
d 1.073536 4 11 ack 40 ------- 1 7.0 1.0 2 8
+ 1.097532 8 11 ack 40 ------- 2 8.0 2.0 1 9
- 1.097532 8 11 ack 40 ------- 2 8.0 2.0 1 9
d 1.097536 10 11 ack 40 ------- 2 8.0 2.0 1 9
d 1.097536 9 11 ack 40 ------- 2 8.0 2.0 1 9
d 1.097536 7 11 ack 40 ------- 2 8.0 2.0 1 9
d 1.097536 6 11 ack 40 ------- 2 8.0 2.0 1 9
d 1.097536 5 11 ack 40 ------- 2 8.0 2.0 1 9
d 1.097536 4 11 ack 40 ------- 2 8.0 2.0 1 9
r 1.098896 11 3 ack 40 ------- 1 7.0 1.0 1 7
+ 1.098896 3 0 ack 40 ------- 1 7.0 1.0 1 7
- 1.098896 3 0 ack 40 ------- 1 7.0 1.0 1 7
r 1.123536 11 3 ack 40 ------- 1 7.0 1.0 2 8
+ 1.123536 3 0 ack 40 ------- 1 7.0 1.0 2 8
- 1.123536 3 0 ack 40 ------- 1 7.0 1.0 2 8
r 1.147536 11 3 ack 40 ------- 2 8.0 2.0 1 9
+ 1.147536 3 0 ack 40 ------- 2 8.0 2.0 1 9
- 1.147536 3 0 ack 40 ------- 2 8.0 2.0 1 9
r 1.159536 3 0 ack 40 ------- 1 7.0 1.0 1 7
+ 1.159536 0 1 ack 40 ------- 1 7.0 1.0 1 7
- 1.159536 0 1 ack 40 ------- 1 7.0 1.0 1 7
r 1.184176 3 0 ack 40 ------- 1 7.0 1.0 2 8
+ 1.184176 0 1 ack 40 ------- 1 7.0 1.0 2 8
- 1.184176 0 1 ack 40 ------- 1 7.0 1.0 2 8
r 1.208176 3 0 ack 40 ------- 2 8.0 2.0 1 9
+ 1.208176 0 2 ack 40 ------- 2 8.0 2.0 1 9
- 1.208176 0 2 ack 40 ------- 2 8.0 2.0 1 9
r 1.219856 0 1 ack 40 ------- 1 7.0 1.0 1 7
+ 1.219856 1 0 tcp 1540 ------- 1 1.0 7.0 3 10
- 1.219856 1 0 tcp 1540 ------- 1 1.0 7.0 3 10
+ 1.219856 1 0 tcp 1540 ------- 1 1.0 7.0 4 11
- 1.232176 1 0 tcp 1540 ------- 1 1.0 7.0 4 11
r 1.244496 0 1 ack 40 ------- 1 7.0 1.0 2 8
+ 1.244496 1 0 tcp 1540 ------- 1 1.0 7.0 5 12
+ 1.244496 1 0 tcp 1540 ------- 1 1.0 7.0 6 13
- 1.244496 1 0 tcp 1540 ------- 1 1.0 7.0 5 12
- 1.256816 1 0 tcp 1540 ------- 1 1.0 7.0 6 13
r 1.268496 0 2 ack 40 ------- 2 8.0 2.0 1 9
+ 1.268496 2 0 tcp 1500 ------- 2 2.0 8.0 2 14
- 1.268496 2 0 tcp 1500 ------- 2 2.0 8.0 2 14
+ 1.268496 2 0 tcp 1500 ------- 2 2.0 8.0 3 15
+ 1.268496 2 0 tcp 1500 ------- 2 2.0 8.0 4 16
- 1.280496 2 0 tcp 1500 ------- 2 2.0 8.0 3 15
r 1.292176 1 0 tcp 1540 ------- 1 1.0 7.0 3 10
+ 1.292176 0 3 tcp 1540 ------- 1 1.0 7.0 3 10
- 1.292176 0 3 tcp 1540 ------- 1 1.0 7.0 3 10
- 1.292496 2 0 tcp 1500 ------- 2 2.0 8.0 4 16
r 1.304496 1 0 tcp 1540 ------- 1 1.0 7.0 4 11
+ 1.304496 0 3 tcp 1540 ------- 1 1.0 7.0 4 11
- 1.316816 0 3 tcp 1540 ------- 1 1.0 7.0 4 11
r 1.316816 1 0 tcp 1540 ------- 1 1.0 7.0 5 12
+ 1.316816 0 3 tcp 1540 ------- 1 1.0 7.0 5 12
r 1.329136 1 0 tcp 1540 ------- 1 1.0 7.0 6 13
+ 1.329136 0 3 tcp 1540 ------- 1 1.0 7.0 6 13
r 1.340496 2 0 tcp 1500 ------- 2 2.0 8.0 2 14
+ 1.340496 0 3 tcp 1500 ------- 2 2.0 8.0 2 14
- 1.341456 0 3 tcp 1540 ------- 1 1.0 7.0 5 12
r 1.352496 2 0 tcp 1500 ------- 2 2.0 8.0 3 15
+ 1.352496 0 3 tcp 1500 ------- 2 2.0 8.0 3 15
r 1.364496 2 0 tcp 1500 ------- 2 2.0 8.0 4 16
+ 1.364496 0 3 tcp 1500 ------- 2 2.0 8.0 4 16
- 1.366096 0 3 tcp 1540 ------- 1 1.0 7.0 6 13
r 1.376816 0 3 tcp 1540 ------- 1 1.0 7.0 3 10
h 1.376816 3 11 tcp 1540 ------- 1 1.0 7.0 3 10
- 1.390736 0 3 tcp 1500 ------- 2 2.0 8.0 2 14
r 1.401456 0 3 tcp 1540 ------- 1 1.0 7.0 4 11
h 1.401456 3 11 tcp 1540 ------- 1 1.0 7.0 4 11
- 1.414736 0 3 tcp 1500 ------- 2 2.0 8.0 3 15
r 1.426096 0 3 tcp 1540 ------- 1 1.0 7.0 5 12
h 1.426096 3 11 tcp 1540 ------- 1 1.0 7.0 5 12
+ 1.426816 3 11 tcp 1540 ------- 1 1.0 7.0 3 10
- 1.426816 3 11 tcp 1540 ------- 1 1.0 7.0 3 10
d 1.42682 10 11 tcp 1540 ------- 1 1.0 7.0 3 10
d 1.42682 9 11 tcp 1540 ------- 1 1.0 7.0 3 10
d 1.42682 8 11 tcp 1540 ------- 1 1.0 7.0 3 10
d 1.42682 6 11 tcp 1540 ------- 1 1.0 7.0 3 10
d 1.42682 5 11 tcp 1540 ------- 1 1.0 7.0 3 10
d 1.42682 4 11 tcp 1540 ------- 1 1.0 7.0 3 10
- 1.438736 0 3 tcp 1500 ------- 2 2.0 8.0 4 16
r 1.450736 0 3 tcp 1540 ------- 1 1.0 7.0 6 13
h 1.450736 3 11 tcp 1540 ------- 1 1.0 7.0 6 13
+ 1.451456 3 11 tcp 1540 ------- 1 1.0 7.0 4 11
- 1.451456 3 11 tcp 1540 ------- 1 1.0 7.0 4 11
d 1.45146 10 11 tcp 1540 ------- 1 1.0 7.0 4 11
d 1.45146 9 11 tcp 1540 ------- 1 1.0 7.0 4 11
d 1.45146 8 11 tcp 1540 ------- 1 1.0 7.0 4 11
d 1.45146 6 11 tcp 1540 ------- 1 1.0 7.0 4 11
d 1.45146 5 11 tcp 1540 ------- 1 1.0 7.0 4 11
d 1.45146 4 11 tcp 1540 ------- 1 1.0 7.0 4 11
r 1.474736 0 3 tcp 1500 ------- 2 2.0 8.0 2 14
h 1.474736 3 11 tcp 1500 ------- 2 2.0 8.0 2 14
+ 1.476096 3 11 tcp 1540 ------- 1 1.0 7.0 5 12
- 1.476096 3 11 tcp 1540 ------- 1 1.0 7.0 5 12
d 1.4761 10 11 tcp 1540 ------- 1 1.0 7.0 5 12
d 1.4761 9 11 tcp 1540 ------- 1 1.0 7.0 5 12
d 1.4761 8 11 tcp 1540 ------- 1 1.0 7.0 5 12
d 1.4761 6 11 tcp 1540 ------- 1 1.0 7.0 5 12
d 1.4761 5 11 tcp 1540 ------- 1 1.0 7.0 5 12
d 1.4761 4 11 tcp 1540 ------- 1 1.0 7.0 5 12
r 1.47682 11 7 tcp 1540 ------- 1 1.0 7.0 3 10
h 1.47682 7 11 ack 40 ------- 1 7.0 1.0 3 17
r 1.498736 0 3 tcp 1500 ------- 2 2.0 8.0 3 15
h 1.498736 3 11 tcp 1500 ------- 2 2.0 8.0 3 15
+ 1.500736 3 11 tcp 1540 ------- 1 1.0 7.0 6 13
- 1.500736 3 11 tcp 1540 ------- 1 1.0 7.0 6 13
d 1.50074 10 11 tcp 1540 ------- 1 1.0 7.0 6 13
d 1.50074 9 11 tcp 1540 ------- 1 1.0 7.0 6 13
d 1.50074 8 11 tcp 1540 ------- 1 1.0 7.0 6 13
d 1.50074 6 11 tcp 1540 ------- 1 1.0 7.0 6 13
d 1.50074 5 11 tcp 1540 ------- 1 1.0 7.0 6 13
d 1.50074 4 11 tcp 1540 ------- 1 1.0 7.0 6 13
r 1.50146 11 7 tcp 1540 ------- 1 1.0 7.0 4 11
h 1.50146 7 11 ack 40 ------- 1 7.0 1.0 4 18
r 1.522736 0 3 tcp 1500 ------- 2 2.0 8.0 4 16
h 1.522736 3 11 tcp 1500 ------- 2 2.0 8.0 4 16
+ 1.524736 3 11 tcp 1500 ------- 2 2.0 8.0 2 14
- 1.524736 3 11 tcp 1500 ------- 2 2.0 8.0 2 14
d 1.52474 10 11 tcp 1500 ------- 2 2.0 8.0 2 14
d 1.52474 9 11 tcp 1500 ------- 2 2.0 8.0 2 14
d 1.52474 7 11 tcp 1500 ------- 2 2.0 8.0 2 14
d 1.52474 6 11 tcp 1500 ------- 2 2.0 8.0 2 14
d 1.52474 5 11 tcp 1500 ------- 2 2.0 8.0 2 14
d 1.52474 4 11 tcp 1500 ------- 2 2.0 8.0 2 14
r 1.5261 11 7 tcp 1540 ------- 1 1.0 7.0 5 12
h 1.5261 7 11 ack 40 ------- 1 7.0 1.0 5 19
+ 1.52682 7 11 ack 40 ------- 1 7.0 1.0 3 17
- 1.52682 7 11 ack 40 ------- 1 7.0 1.0 3 17
d 1.526824 10 11 ack 40 ------- 1 7.0 1.0 3 17
d 1.526824 9 11 ack 40 ------- 1 7.0 1.0 3 17
d 1.526824 8 11 ack 40 ------- 1 7.0 1.0 3 17
d 1.526824 6 11 ack 40 ------- 1 7.0 1.0 3 17
d 1.526824 5 11 ack 40 ------- 1 7.0 1.0 3 17
d 1.526824 4 11 ack 40 ------- 1 7.0 1.0 3 17
+ 1.548736 3 11 tcp 1500 ------- 2 2.0 8.0 3 15
- 1.548736 3 11 tcp 1500 ------- 2 2.0 8.0 3 15
d 1.54874 10 11 tcp 1500 ------- 2 2.0 8.0 3 15
d 1.54874 9 11 tcp 1500 ------- 2 2.0 8.0 3 15
d 1.54874 7 11 tcp 1500 ------- 2 2.0 8.0 3 15
d 1.54874 6 11 tcp 1500 ------- 2 2.0 8.0 3 15
d 1.54874 5 11 tcp 1500 ------- 2 2.0 8.0 3 15
d 1.54874 4 11 tcp 1500 ------- 2 2.0 8.0 3 15
r 1.55074 11 7 tcp 1540 ------- 1 1.0 7.0 6 13
h 1.55074 7 11 ack 40 ------- 1 7.0 1.0 6 20
+ 1.55146 7 11 ack 40 ------- 1 7.0 1.0 4 18
- 1.55146 7 11 ack 40 ------- 1 7.0 1.0 4 18
d 1.551464 10 11 ack 40 ------- 1 7.0 1.0 4 18
d 1.551464 9 11 ack 40 ------- 1 7.0 1.0 4 18
d 1.551464 8 11 ack 40 ------- 1 7.0 1.0 4 18
d 1.551464 6 11 ack 40 ------- 1 7.0 1.0 4 18
d 1.551464 5 11 ack 40 ------- 1 7.0 1.0 4 18
d 1.551464 4 11 ack 40 ------- 1 7.0 1.0 4 18
+ 1.572736 3 11 tcp 1500 ------- 2 2.0 8.0 4 16
- 1.572736 3 11 tcp 1500 ------- 2 2.0 8.0 4 16
d 1.57274 10 11 tcp 1500 ------- 2 2.0 8.0 4 16
d 1.57274 9 11 tcp 1500 ------- 2 2.0 8.0 4 16
d 1.57274 7 11 tcp 1500 ------- 2 2.0 8.0 4 16
d 1.57274 6 11 tcp 1500 ------- 2 2.0 8.0 4 16
d 1.57274 5 11 tcp 1500 ------- 2 2.0 8.0 4 16
d 1.57274 4 11 tcp 1500 ------- 2 2.0 8.0 4 16
r 1.57474 11 8 tcp 1500 ------- 2 2.0 8.0 2 14
h 1.57474 8 11 ack 40 ------- 2 8.0 2.0 2 21
+ 1.5761 7 11 ack 40 ------- 1 7.0 1.0 5 19
- 1.5761 7 11 ack 40 ------- 1 7.0 1.0 5 19
d 1.576104 10 11 ack 40 ------- 1 7.0 1.0 5 19
d 1.576104 9 11 ack 40 ------- 1 7.0 1.0 5 19
d 1.576104 8 11 ack 40 ------- 1 7.0 1.0 5 19
d 1.576104 6 11 ack 40 ------- 1 7.0 1.0 5 19
d 1.576104 5 11 ack 40 ------- 1 7.0 1.0 5 19
d 1.576104 4 11 ack 40 ------- 1 7.0 1.0 5 19
r 1.576824 11 3 ack 40 ------- 1 7.0 1.0 3 17
+ 1.576824 3 0 ack 40 ------- 1 7.0 1.0 3 17
- 1.576824 3 0 ack 40 ------- 1 7.0 1.0 3 17
r 1.59874 11 8 tcp 1500 ------- 2 2.0 8.0 3 15
h 1.59874 8 11 ack 40 ------- 2 8.0 2.0 3 22
+ 1.60074 7 11 ack 40 ------- 1 7.0 1.0 6 20
- 1.60074 7 11 ack 40 ------- 1 7.0 1.0 6 20
d 1.600744 10 11 ack 40 ------- 1 7.0 1.0 6 20
d 1.600744 9 11 ack 40 ------- 1 7.0 1.0 6 20
d 1.600744 8 11 ack 40 ------- 1 7.0 1.0 6 20
d 1.600744 6 11 ack 40 ------- 1 7.0 1.0 6 20
d 1.600744 5 11 ack 40 ------- 1 7.0 1.0 6 20
d 1.600744 4 11 ack 40 ------- 1 7.0 1.0 6 20
r 1.601464 11 3 ack 40 ------- 1 7.0 1.0 4 18
+ 1.601464 3 0 ack 40 ------- 1 7.0 1.0 4 18
- 1.601464 3 0 ack 40 ------- 1 7.0 1.0 4 18
r 1.62274 11 8 tcp 1500 ------- 2 2.0 8.0 4 16
h 1.62274 8 11 ack 40 ------- 2 8.0 2.0 4 23
+ 1.62474 8 11 ack 40 ------- 2 8.0 2.0 2 21
- 1.62474 8 11 ack 40 ------- 2 8.0 2.0 2 21
d 1.624744 10 11 ack 40 ------- 2 8.0 2.0 2 21
d 1.624744 9 11 ack 40 ------- 2 8.0 2.0 2 21
d 1.624744 7 11 ack 40 ------- 2 8.0 2.0 2 21
d 1.624744 6 11 ack 40 ------- 2 8.0 2.0 2 21
d 1.624744 5 11 ack 40 ------- 2 8.0 2.0 2 21
d 1.624744 4 11 ack 40 ------- 2 8.0 2.0 2 21
r 1.626104 11 3 ack 40 ------- 1 7.0 1.0 5 19
+ 1.626104 3 0 ack 40 ------- 1 7.0 1.0 5 19
- 1.626104 3 0 ack 40 ------- 1 7.0 1.0 5 19
r 1.637464 3 0 ack 40 ------- 1 7.0 1.0 3 17
+ 1.637464 0 1 ack 40 ------- 1 7.0 1.0 3 17
- 1.637464 0 1 ack 40 ------- 1 7.0 1.0 3 17
+ 1.64874 8 11 ack 40 ------- 2 8.0 2.0 3 22
- 1.64874 8 11 ack 40 ------- 2 8.0 2.0 3 22
d 1.648744 10 11 ack 40 ------- 2 8.0 2.0 3 22
d 1.648744 9 11 ack 40 ------- 2 8.0 2.0 3 22
d 1.648744 7 11 ack 40 ------- 2 8.0 2.0 3 22
d 1.648744 6 11 ack 40 ------- 2 8.0 2.0 3 22
d 1.648744 5 11 ack 40 ------- 2 8.0 2.0 3 22
d 1.648744 4 11 ack 40 ------- 2 8.0 2.0 3 22
r 1.650744 11 3 ack 40 ------- 1 7.0 1.0 6 20
+ 1.650744 3 0 ack 40 ------- 1 7.0 1.0 6 20
- 1.650744 3 0 ack 40 ------- 1 7.0 1.0 6 20
r 1.662104 3 0 ack 40 ------- 1 7.0 1.0 4 18
+ 1.662104 0 1 ack 40 ------- 1 7.0 1.0 4 18
- 1.662104 0 1 ack 40 ------- 1 7.0 1.0 4 18
+ 1.67274 8 11 ack 40 ------- 2 8.0 2.0 4 23
- 1.67274 8 11 ack 40 ------- 2 8.0 2.0 4 23
d 1.672744 10 11 ack 40 ------- 2 8.0 2.0 4 23
d 1.672744 9 11 ack 40 ------- 2 8.0 2.0 4 23
d 1.672744 7 11 ack 40 ------- 2 8.0 2.0 4 23
d 1.672744 6 11 ack 40 ------- 2 8.0 2.0 4 23
d 1.672744 5 11 ack 40 ------- 2 8.0 2.0 4 23
d 1.672744 4 11 ack 40 ------- 2 8.0 2.0 4 23
r 1.674744 11 3 ack 40 ------- 2 8.0 2.0 2 21
+ 1.674744 3 0 ack 40 ------- 2 8.0 2.0 2 21
- 1.674744 3 0 ack 40 ------- 2 8.0 2.0 2 21
r 1.686744 3 0 ack 40 ------- 1 7.0 1.0 5 19
+ 1.686744 0 1 ack 40 ------- 1 7.0 1.0 5 19
- 1.686744 0 1 ack 40 ------- 1 7.0 1.0 5 19
r 1.697784 0 1 ack 40 ------- 1 7.0 1.0 3 17
+ 1.697784 1 0 tcp 1540 ------- 1 1.0 7.0 7 24
- 1.697784 1 0 tcp 1540 ------- 1 1.0 7.0 7 24
+ 1.697784 1 0 tcp 1540 ------- 1 1.0 7.0 8 25
r 1.698744 11 3 ack 40 ------- 2 8.0 2.0 3 22
+ 1.698744 3 0 ack 40 ------- 2 8.0 2.0 3 22
- 1.698744 3 0 ack 40 ------- 2 8.0 2.0 3 22
- 1.710104 1 0 tcp 1540 ------- 1 1.0 7.0 8 25
r 1.711384 3 0 ack 40 ------- 1 7.0 1.0 6 20
+ 1.711384 0 1 ack 40 ------- 1 7.0 1.0 6 20
- 1.711384 0 1 ack 40 ------- 1 7.0 1.0 6 20
r 1.722424 0 1 ack 40 ------- 1 7.0 1.0 4 18
+ 1.722424 1 0 tcp 1540 ------- 1 1.0 7.0 9 26
+ 1.722424 1 0 tcp 1540 ------- 1 1.0 7.0 10 27
- 1.722424 1 0 tcp 1540 ------- 1 1.0 7.0 9 26
r 1.722744 11 3 ack 40 ------- 2 8.0 2.0 4 23
+ 1.722744 3 0 ack 40 ------- 2 8.0 2.0 4 23
- 1.722744 3 0 ack 40 ------- 2 8.0 2.0 4 23
- 1.734744 1 0 tcp 1540 ------- 1 1.0 7.0 10 27
r 1.735384 3 0 ack 40 ------- 2 8.0 2.0 2 21
+ 1.735384 0 2 ack 40 ------- 2 8.0 2.0 2 21
- 1.735384 0 2 ack 40 ------- 2 8.0 2.0 2 21
r 1.747064 0 1 ack 40 ------- 1 7.0 1.0 5 19
+ 1.747064 1 0 tcp 1540 ------- 1 1.0 7.0 11 28
+ 1.747064 1 0 tcp 1540 ------- 1 1.0 7.0 12 29
- 1.747064 1 0 tcp 1540 ------- 1 1.0 7.0 11 28
r 1.759384 3 0 ack 40 ------- 2 8.0 2.0 3 22
+ 1.759384 0 2 ack 40 ------- 2 8.0 2.0 3 22
- 1.759384 0 2 ack 40 ------- 2 8.0 2.0 3 22
- 1.759384 1 0 tcp 1540 ------- 1 1.0 7.0 12 29
r 1.770104 1 0 tcp 1540 ------- 1 1.0 7.0 7 24
+ 1.770104 0 3 tcp 1540 ------- 1 1.0 7.0 7 24
- 1.770104 0 3 tcp 1540 ------- 1 1.0 7.0 7 24
r 1.771704 0 1 ack 40 ------- 1 7.0 1.0 6 20
+ 1.771704 1 0 tcp 1540 ------- 1 1.0 7.0 13 30
+ 1.771704 1 0 tcp 1540 ------- 1 1.0 7.0 14 31
- 1.771704 1 0 tcp 1540 ------- 1 1.0 7.0 13 30
r 1.782424 1 0 tcp 1540 ------- 1 1.0 7.0 8 25
+ 1.782424 0 3 tcp 1540 ------- 1 1.0 7.0 8 25
r 1.783384 3 0 ack 40 ------- 2 8.0 2.0 4 23
+ 1.783384 0 2 ack 40 ------- 2 8.0 2.0 4 23
- 1.783384 0 2 ack 40 ------- 2 8.0 2.0 4 23
- 1.784024 1 0 tcp 1540 ------- 1 1.0 7.0 14 31
- 1.794744 0 3 tcp 1540 ------- 1 1.0 7.0 8 25
r 1.794744 1 0 tcp 1540 ------- 1 1.0 7.0 9 26
+ 1.794744 0 3 tcp 1540 ------- 1 1.0 7.0 9 26
r 1.795704 0 2 ack 40 ------- 2 8.0 2.0 2 21
+ 1.795704 2 0 tcp 1500 ------- 2 2.0 8.0 5 32
- 1.795704 2 0 tcp 1500 ------- 2 2.0 8.0 5 32
r 1.807064 1 0 tcp 1540 ------- 1 1.0 7.0 10 27
+ 1.807064 0 3 tcp 1540 ------- 1 1.0 7.0 10 27
- 1.819384 0 3 tcp 1540 ------- 1 1.0 7.0 9 26
r 1.819384 1 0 tcp 1540 ------- 1 1.0 7.0 11 28
+ 1.819384 0 3 tcp 1540 ------- 1 1.0 7.0 11 28
r 1.819704 0 2 ack 40 ------- 2 8.0 2.0 3 22
+ 1.819704 2 0 tcp 1500 ------- 2 2.0 8.0 6 33
- 1.819704 2 0 tcp 1500 ------- 2 2.0 8.0 6 33
r 1.831704 1 0 tcp 1540 ------- 1 1.0 7.0 12 29
+ 1.831704 0 3 tcp 1540 ------- 1 1.0 7.0 12 29
r 1.843704 0 2 ack 40 ------- 2 8.0 2.0 4 23
+ 1.843704 2 0 tcp 1500 ------- 2 2.0 8.0 7 34
- 1.843704 2 0 tcp 1500 ------- 2 2.0 8.0 7 34
- 1.844024 0 3 tcp 1540 ------- 1 1.0 7.0 10 27
r 1.844024 1 0 tcp 1540 ------- 1 1.0 7.0 13 30
+ 1.844024 0 3 tcp 1540 ------- 1 1.0 7.0 13 30
r 1.854744 0 3 tcp 1540 ------- 1 1.0 7.0 7 24
h 1.854744 3 11 tcp 1540 ------- 1 1.0 7.0 7 24
r 1.856344 1 0 tcp 1540 ------- 1 1.0 7.0 14 31
+ 1.856344 0 3 tcp 1540 ------- 1 1.0 7.0 14 31
r 1.867704 2 0 tcp 1500 ------- 2 2.0 8.0 5 32
+ 1.867704 0 3 tcp 1500 ------- 2 2.0 8.0 5 32
- 1.868664 0 3 tcp 1540 ------- 1 1.0 7.0 11 28
r 1.879384 0 3 tcp 1540 ------- 1 1.0 7.0 8 25
h 1.879384 3 11 tcp 1540 ------- 1 1.0 7.0 8 25
r 1.891704 2 0 tcp 1500 ------- 2 2.0 8.0 6 33
+ 1.891704 0 3 tcp 1500 ------- 2 2.0 8.0 6 33
- 1.893304 0 3 tcp 1540 ------- 1 1.0 7.0 12 29
r 1.904024 0 3 tcp 1540 ------- 1 1.0 7.0 9 26
h 1.904024 3 11 tcp 1540 ------- 1 1.0 7.0 9 26
+ 1.904744 3 11 tcp 1540 ------- 1 1.0 7.0 7 24
- 1.904744 3 11 tcp 1540 ------- 1 1.0 7.0 7 24
d 1.904748 10 11 tcp 1540 ------- 1 1.0 7.0 7 24
d 1.904748 9 11 tcp 1540 ------- 1 1.0 7.0 7 24
d 1.904748 8 11 tcp 1540 ------- 1 1.0 7.0 7 24
d 1.904748 6 11 tcp 1540 ------- 1 1.0 7.0 7 24
d 1.904748 5 11 tcp 1540 ------- 1 1.0 7.0 7 24
d 1.904748 4 11 tcp 1540 ------- 1 1.0 7.0 7 24
r 1.915704 2 0 tcp 1500 ------- 2 2.0 8.0 7 34
+ 1.915704 0 3 tcp 1500 ------- 2 2.0 8.0 7 34
- 1.917944 0 3 tcp 1540 ------- 1 1.0 7.0 13 30
r 1.928664 0 3 tcp 1540 ------- 1 1.0 7.0 10 27
h 1.928664 3 11 tcp 1540 ------- 1 1.0 7.0 10 27
+ 1.929384 3 11 tcp 1540 ------- 1 1.0 7.0 8 25
- 1.929384 3 11 tcp 1540 ------- 1 1.0 7.0 8 25
d 1.929388 10 11 tcp 1540 ------- 1 1.0 7.0 8 25
d 1.929388 9 11 tcp 1540 ------- 1 1.0 7.0 8 25
d 1.929388 8 11 tcp 1540 ------- 1 1.0 7.0 8 25
d 1.929388 6 11 tcp 1540 ------- 1 1.0 7.0 8 25
d 1.929388 5 11 tcp 1540 ------- 1 1.0 7.0 8 25
d 1.929388 4 11 tcp 1540 ------- 1 1.0 7.0 8 25
- 1.942584 0 3 tcp 1540 ------- 1 1.0 7.0 14 31
r 1.953304 0 3 tcp 1540 ------- 1 1.0 7.0 11 28
h 1.953304 3 11 tcp 1540 ------- 1 1.0 7.0 11 28
+ 1.954024 3 11 tcp 1540 ------- 1 1.0 7.0 9 26
- 1.954024 3 11 tcp 1540 ------- 1 1.0 7.0 9 26
d 1.954028 10 11 tcp 1540 ------- 1 1.0 7.0 9 26
d 1.954028 9 11 tcp 1540 ------- 1 1.0 7.0 9 26
d 1.954028 8 11 tcp 1540 ------- 1 1.0 7.0 9 26
d 1.954028 6 11 tcp 1540 ------- 1 1.0 7.0 9 26
d 1.954028 5 11 tcp 1540 ------- 1 1.0 7.0 9 26
d 1.954028 4 11 tcp 1540 ------- 1 1.0 7.0 9 26
r 1.954748 11 7 tcp 1540 ------- 1 1.0 7.0 7 24
h 1.954748 7 11 ack 40 ------- 1 7.0 1.0 7 35
- 1.967224 0 3 tcp 1500 ------- 2 2.0 8.0 5 32
r 1.977944 0 3 tcp 1540 ------- 1 1.0 7.0 12 29
h 1.977944 3 11 tcp 1540 ------- 1 1.0 7.0 12 29
+ 1.978664 3 11 tcp 1540 ------- 1 1.0 7.0 10 27
- 1.978664 3 11 tcp 1540 ------- 1 1.0 7.0 10 27
d 1.978668 10 11 tcp 1540 ------- 1 1.0 7.0 10 27
d 1.978668 9 11 tcp 1540 ------- 1 1.0 7.0 10 27
d 1.978668 8 11 tcp 1540 ------- 1 1.0 7.0 10 27
d 1.978668 6 11 tcp 1540 ------- 1 1.0 7.0 10 27
d 1.978668 5 11 tcp 1540 ------- 1 1.0 7.0 10 27
d 1.978668 4 11 tcp 1540 ------- 1 1.0 7.0 10 27
r 1.979388 11 7 tcp 1540 ------- 1 1.0 7.0 8 25
h 1.979388 7 11 ack 40 ------- 1 7.0 1.0 8 36
- 1.991224 0 3 tcp 1500 ------- 2 2.0 8.0 6 33
r 2.002584 0 3 tcp 1540 ------- 1 1.0 7.0 13 30
h 2.002584 3 11 tcp 1540 ------- 1 1.0 7.0 13 30
+ 2.003304 3 11 tcp 1540 ------- 1 1.0 7.0 11 28
- 2.003304 3 11 tcp 1540 ------- 1 1.0 7.0 11 28
d 2.003308 10 11 tcp 1540 ------- 1 1.0 7.0 11 28
d 2.003308 9 11 tcp 1540 ------- 1 1.0 7.0 11 28
d 2.003308 8 11 tcp 1540 ------- 1 1.0 7.0 11 28
d 2.003308 6 11 tcp 1540 ------- 1 1.0 7.0 11 28
d 2.003308 5 11 tcp 1540 ------- 1 1.0 7.0 11 28
d 2.003308 4 11 tcp 1540 ------- 1 1.0 7.0 11 28
r 2.004028 11 7 tcp 1540 ------- 1 1.0 7.0 9 26
h 2.004028 7 11 ack 40 ------- 1 7.0 1.0 9 37
+ 2.004748 7 11 ack 40 ------- 1 7.0 1.0 7 35
- 2.004748 7 11 ack 40 ------- 1 7.0 1.0 7 35
d 2.004752 10 11 ack 40 ------- 1 7.0 1.0 7 35
d 2.004752 9 11 ack 40 ------- 1 7.0 1.0 7 35
d 2.004752 8 11 ack 40 ------- 1 7.0 1.0 7 35
d 2.004752 6 11 ack 40 ------- 1 7.0 1.0 7 35
d 2.004752 5 11 ack 40 ------- 1 7.0 1.0 7 35
d 2.004752 4 11 ack 40 ------- 1 7.0 1.0 7 35
- 2.015224 0 3 tcp 1500 ------- 2 2.0 8.0 7 34
r 2.027224 0 3 tcp 1540 ------- 1 1.0 7.0 14 31
h 2.027224 3 11 tcp 1540 ------- 1 1.0 7.0 14 31
+ 2.027944 3 11 tcp 1540 ------- 1 1.0 7.0 12 29
- 2.027944 3 11 tcp 1540 ------- 1 1.0 7.0 12 29
d 2.027948 10 11 tcp 1540 ------- 1 1.0 7.0 12 29
d 2.027948 9 11 tcp 1540 ------- 1 1.0 7.0 12 29
d 2.027948 8 11 tcp 1540 ------- 1 1.0 7.0 12 29
d 2.027948 6 11 tcp 1540 ------- 1 1.0 7.0 12 29
d 2.027948 5 11 tcp 1540 ------- 1 1.0 7.0 12 29
d 2.027948 4 11 tcp 1540 ------- 1 1.0 7.0 12 29
r 2.028668 11 7 tcp 1540 ------- 1 1.0 7.0 10 27
h 2.028668 7 11 ack 40 ------- 1 7.0 1.0 10 38
+ 2.029388 7 11 ack 40 ------- 1 7.0 1.0 8 36
- 2.029388 7 11 ack 40 ------- 1 7.0 1.0 8 36
d 2.029392 10 11 ack 40 ------- 1 7.0 1.0 8 36
d 2.029392 9 11 ack 40 ------- 1 7.0 1.0 8 36
d 2.029392 8 11 ack 40 ------- 1 7.0 1.0 8 36
d 2.029392 6 11 ack 40 ------- 1 7.0 1.0 8 36
d 2.029392 5 11 ack 40 ------- 1 7.0 1.0 8 36
d 2.029392 4 11 ack 40 ------- 1 7.0 1.0 8 36
r 2.051224 0 3 tcp 1500 ------- 2 2.0 8.0 5 32
h 2.051224 3 11 tcp 1500 ------- 2 2.0 8.0 5 32
+ 2.052584 3 11 tcp 1540 ------- 1 1.0 7.0 13 30
- 2.052584 3 11 tcp 1540 ------- 1 1.0 7.0 13 30
d 2.052588 10 11 tcp 1540 ------- 1 1.0 7.0 13 30
d 2.052588 9 11 tcp 1540 ------- 1 1.0 7.0 13 30
d 2.052588 8 11 tcp 1540 ------- 1 1.0 7.0 13 30
d 2.052588 6 11 tcp 1540 ------- 1 1.0 7.0 13 30
d 2.052588 5 11 tcp 1540 ------- 1 1.0 7.0 13 30
d 2.052588 4 11 tcp 1540 ------- 1 1.0 7.0 13 30
r 2.053308 11 7 tcp 1540 ------- 1 1.0 7.0 11 28
h 2.053308 7 11 ack 40 ------- 1 7.0 1.0 11 39
+ 2.054028 7 11 ack 40 ------- 1 7.0 1.0 9 37
- 2.054028 7 11 ack 40 ------- 1 7.0 1.0 9 37
d 2.054032 10 11 ack 40 ------- 1 7.0 1.0 9 37
d 2.054032 9 11 ack 40 ------- 1 7.0 1.0 9 37
d 2.054032 8 11 ack 40 ------- 1 7.0 1.0 9 37
d 2.054032 6 11 ack 40 ------- 1 7.0 1.0 9 37
d 2.054032 5 11 ack 40 ------- 1 7.0 1.0 9 37
d 2.054032 4 11 ack 40 ------- 1 7.0 1.0 9 37
r 2.054752 11 3 ack 40 ------- 1 7.0 1.0 7 35
+ 2.054752 3 0 ack 40 ------- 1 7.0 1.0 7 35
- 2.054752 3 0 ack 40 ------- 1 7.0 1.0 7 35
r 2.075224 0 3 tcp 1500 ------- 2 2.0 8.0 6 33
h 2.075224 3 11 tcp 1500 ------- 2 2.0 8.0 6 33
+ 2.077224 3 11 tcp 1540 ------- 1 1.0 7.0 14 31
- 2.077224 3 11 tcp 1540 ------- 1 1.0 7.0 14 31
d 2.077228 10 11 tcp 1540 ------- 1 1.0 7.0 14 31
d 2.077228 9 11 tcp 1540 ------- 1 1.0 7.0 14 31
d 2.077228 8 11 tcp 1540 ------- 1 1.0 7.0 14 31
d 2.077228 6 11 tcp 1540 ------- 1 1.0 7.0 14 31
d 2.077228 5 11 tcp 1540 ------- 1 1.0 7.0 14 31
d 2.077228 4 11 tcp 1540 ------- 1 1.0 7.0 14 31
r 2.077948 11 7 tcp 1540 ------- 1 1.0 7.0 12 29
h 2.077948 7 11 ack 40 ------- 1 7.0 1.0 12 40
+ 2.078668 7 11 ack 40 ------- 1 7.0 1.0 10 38
- 2.078668 7 11 ack 40 ------- 1 7.0 1.0 10 38
d 2.078672 10 11 ack 40 ------- 1 7.0 1.0 10 38
d 2.078672 9 11 ack 40 ------- 1 7.0 1.0 10 38
d 2.078672 8 11 ack 40 ------- 1 7.0 1.0 10 38
d 2.078672 6 11 ack 40 ------- 1 7.0 1.0 10 38
d 2.078672 5 11 ack 40 ------- 1 7.0 1.0 10 38
d 2.078672 4 11 ack 40 ------- 1 7.0 1.0 10 38
r 2.079392 11 3 ack 40 ------- 1 7.0 1.0 8 36
+ 2.079392 3 0 ack 40 ------- 1 7.0 1.0 8 36
- 2.079392 3 0 ack 40 ------- 1 7.0 1.0 8 36
r 2.099224 0 3 tcp 1500 ------- 2 2.0 8.0 7 34
h 2.099224 3 11 tcp 1500 ------- 2 2.0 8.0 7 34
+ 2.101224 3 11 tcp 1500 ------- 2 2.0 8.0 5 32
- 2.101224 3 11 tcp 1500 ------- 2 2.0 8.0 5 32
d 2.101228 10 11 tcp 1500 ------- 2 2.0 8.0 5 32
d 2.101228 9 11 tcp 1500 ------- 2 2.0 8.0 5 32
d 2.101228 7 11 tcp 1500 ------- 2 2.0 8.0 5 32
d 2.101228 6 11 tcp 1500 ------- 2 2.0 8.0 5 32
d 2.101228 5 11 tcp 1500 ------- 2 2.0 8.0 5 32
d 2.101228 4 11 tcp 1500 ------- 2 2.0 8.0 5 32
r 2.102588 11 7 tcp 1540 ------- 1 1.0 7.0 13 30
h 2.102588 7 11 ack 40 ------- 1 7.0 1.0 13 41
+ 2.103308 7 11 ack 40 ------- 1 7.0 1.0 11 39
- 2.103308 7 11 ack 40 ------- 1 7.0 1.0 11 39
d 2.103312 10 11 ack 40 ------- 1 7.0 1.0 11 39
d 2.103312 9 11 ack 40 ------- 1 7.0 1.0 11 39
d 2.103312 8 11 ack 40 ------- 1 7.0 1.0 11 39
d 2.103312 6 11 ack 40 ------- 1 7.0 1.0 11 39
d 2.103312 5 11 ack 40 ------- 1 7.0 1.0 11 39
d 2.103312 4 11 ack 40 ------- 1 7.0 1.0 11 39
r 2.104032 11 3 ack 40 ------- 1 7.0 1.0 9 37
+ 2.104032 3 0 ack 40 ------- 1 7.0 1.0 9 37
- 2.104032 3 0 ack 40 ------- 1 7.0 1.0 9 37
r 2.115392 3 0 ack 40 ------- 1 7.0 1.0 7 35
+ 2.115392 0 1 ack 40 ------- 1 7.0 1.0 7 35
- 2.115392 0 1 ack 40 ------- 1 7.0 1.0 7 35
+ 2.125224 3 11 tcp 1500 ------- 2 2.0 8.0 6 33
- 2.125224 3 11 tcp 1500 ------- 2 2.0 8.0 6 33
d 2.125228 10 11 tcp 1500 ------- 2 2.0 8.0 6 33
d 2.125228 9 11 tcp 1500 ------- 2 2.0 8.0 6 33
d 2.125228 7 11 tcp 1500 ------- 2 2.0 8.0 6 33
d 2.125228 6 11 tcp 1500 ------- 2 2.0 8.0 6 33
d 2.125228 5 11 tcp 1500 ------- 2 2.0 8.0 6 33
d 2.125228 4 11 tcp 1500 ------- 2 2.0 8.0 6 33
r 2.127228 11 7 tcp 1540 ------- 1 1.0 7.0 14 31
h 2.127228 7 11 ack 40 ------- 1 7.0 1.0 14 42
+ 2.127948 7 11 ack 40 ------- 1 7.0 1.0 12 40
- 2.127948 7 11 ack 40 ------- 1 7.0 1.0 12 40
d 2.127952 10 11 ack 40 ------- 1 7.0 1.0 12 40
d 2.127952 9 11 ack 40 ------- 1 7.0 1.0 12 40
d 2.127952 8 11 ack 40 ------- 1 7.0 1.0 12 40
d 2.127952 6 11 ack 40 ------- 1 7.0 1.0 12 40
d 2.127952 5 11 ack 40 ------- 1 7.0 1.0 12 40
d 2.127952 4 11 ack 40 ------- 1 7.0 1.0 12 40
r 2.128672 11 3 ack 40 ------- 1 7.0 1.0 10 38
+ 2.128672 3 0 ack 40 ------- 1 7.0 1.0 10 38
- 2.128672 3 0 ack 40 ------- 1 7.0 1.0 10 38
r 2.140032 3 0 ack 40 ------- 1 7.0 1.0 8 36
+ 2.140032 0 1 ack 40 ------- 1 7.0 1.0 8 36
- 2.140032 0 1 ack 40 ------- 1 7.0 1.0 8 36
+ 2.149224 3 11 tcp 1500 ------- 2 2.0 8.0 7 34
- 2.149224 3 11 tcp 1500 ------- 2 2.0 8.0 7 34
d 2.149228 10 11 tcp 1500 ------- 2 2.0 8.0 7 34
d 2.149228 9 11 tcp 1500 ------- 2 2.0 8.0 7 34
d 2.149228 7 11 tcp 1500 ------- 2 2.0 8.0 7 34
d 2.149228 6 11 tcp 1500 ------- 2 2.0 8.0 7 34
d 2.149228 5 11 tcp 1500 ------- 2 2.0 8.0 7 34
d 2.149228 4 11 tcp 1500 ------- 2 2.0 8.0 7 34
r 2.151228 11 8 tcp 1500 ------- 2 2.0 8.0 5 32
h 2.151228 8 11 ack 40 ------- 2 8.0 2.0 5 43
+ 2.152588 7 11 ack 40 ------- 1 7.0 1.0 13 41
- 2.152588 7 11 ack 40 ------- 1 7.0 1.0 13 41
d 2.152592 10 11 ack 40 ------- 1 7.0 1.0 13 41
d 2.152592 9 11 ack 40 ------- 1 7.0 1.0 13 41
d 2.152592 8 11 ack 40 ------- 1 7.0 1.0 13 41
d 2.152592 6 11 ack 40 ------- 1 7.0 1.0 13 41
d 2.152592 5 11 ack 40 ------- 1 7.0 1.0 13 41
d 2.152592 4 11 ack 40 ------- 1 7.0 1.0 13 41
r 2.153312 11 3 ack 40 ------- 1 7.0 1.0 11 39
+ 2.153312 3 0 ack 40 ------- 1 7.0 1.0 11 39
- 2.153312 3 0 ack 40 ------- 1 7.0 1.0 11 39