n -t 0 -s 0 -S DLABEL -l "Main Router" -L ""
n -t 0 -s 1 -S DLABEL -l "Source 1" -L ""
n -t 0 -s 2 -S DLABEL -l "Source 2" -L ""
V -t * -v 1.0a5 -a 0
A -t * -n 1 -p 0 -o 0x7fffffff -c 30 -a 1
A -t * -h 1 -m 1073741823 -s 0
c -t * -i 1 -n Blue
c -t * -i 2 -n Red
n -t * -a 0 -s 0 -S UP -v circle -c black -i black
n -t * -a 1 -s 1 -S UP -v circle -c black -i black
n -t * -a 2 -s 2 -S UP -v circle -c black -i black
n -t * -a 3 -s 3 -S UP -v circle -c black -i black
n -t * -a 4 -s 4 -S UP -v circle -c black -i black
n -t * -a 5 -s 5 -S UP -v circle -c black -i black
n -t * -a 6 -s 6 -S UP -v circle -c black -i black
n -t * -a 7 -s 7 -S UP -v circle -c black -i black
n -t * -a 8 -s 8 -S UP -v circle -c black -i black
n -t * -a 9 -s 9 -S UP -v circle -c black -i black
n -t * -a 10 -s 10 -S UP -v circle -c black -i black
l -t * -s 1 -d 0 -S UP -r 1000000 -D 0.059999999999999998 -c black -o right-down
l -t * -s 2 -d 0 -S UP -r 1000000 -D 0.059999999999999998 -c black -o right-up
l -t * -s 0 -d 3 -S UP -r 500000 -D 0.059999999999999998 -c black -o right
X -t * -n 11 -r 512Kb -D 50ms -o left
L -t * -s 11 -d 3 -o up
L -t * -s 11 -d 4 -o down
L -t * -s 11 -d 5 -o up
L -t * -s 11 -d 6 -o down
L -t * -s 11 -d 7 -o up
L -t * -s 11 -d 8 -o down
L -t * -s 11 -d 9 -o up
L -t * -s 11 -d 10 -o down
+ -t 0.3 -s 1 -d 0 -p tcp -e 40 -c 1 -i 0 -a 1 -x {1.0 7.0 0 ------- null}
- -t 0.3 -s 1 -d 0 -p tcp -e 40 -c 1 -i 0 -a 1 -x {1.0 7.0 0 ------- null}
h -t 0.3 -s 1 -d 0 -p tcp -e 40 -c 1 -i 0 -a 1 -x {1.0 7.0 -1 ------- null}
+ -t 0.3 -s 2 -d 0 -p tcp -e 1500 -c 2 -i 1 -a 2 -x {2.0 8.0 0 ------- null}
- -t 0.3 -s 2 -d 0 -p tcp -e 1500 -c 2 -i 1 -a 2 -x {2.0 8.0 0 ------- null}
h -t 0.3 -s 2 -d 0 -p tcp -e 1500 -c 2 -i 1 -a 2 -x {2.0 8.0 -1 ------- null}
r -t 0.36032 -s 1 -d 0 -p tcp -e 40 -c 1 -i 0 -a 1 -x {1.0 7.0 0 ------- null}
+ -t 0.36032 -s 0 -d 3 -p tcp -e 40 -c 1 -i 0 -a 1 -x {1.0 7.0 0 ------- null}
- -t 0.36032 -s 0 -d 3 -p tcp -e 40 -c 1 -i 0 -a 1 -x {1.0 7.0 0 ------- null}
h -t 0.36032 -s 0 -d 3 -p tcp -e 40 -c 1 -i 0 -a 1 -x {1.0 7.0 -1 ------- null}
r -t 0.372 -s 2 -d 0 -p tcp -e 1500 -c 2 -i 1 -a 2 -x {2.0 8.0 0 ------- null}
+ -t 0.372 -s 0 -d 3 -p tcp -e 1500 -c 2 -i 1 -a 2 -x {2.0 8.0 0 ------- null}
- -t 0.372 -s 0 -d 3 -p tcp -e 1500 -c 2 -i 1 -a 2 -x {2.0 8.0 0 ------- null}
h -t 0.372 -s 0 -d 3 -p tcp -e 1500 -c 2 -i 1 -a 2 -x {2.0 8.0 -1 ------- null}
r -t 0.42096 -s 0 -d 3 -p tcp -e 40 -c 1 -i 0 -a 1 -x {1.0 7.0 0 ------- null}
h -t 0.42096 -s 3 -d 11 -p tcp -e 40 -c 1 -i 0 -a 1 -x {1.0 7.0 0 ------- null}
r -t 0.456 -s 0 -d 3 -p tcp -e 1500 -c 2 -i 1 -a 2 -x {2.0 8.0 0 ------- null}
h -t 0.456 -s 3 -d 11 -p tcp -e 1500 -c 2 -i 1 -a 2 -x {2.0 8.0 0 ------- null}
+ -t 0.47096 -s 3 -d 11 -p tcp -e 40 -c 1 -i 0 -a 1 -x {1.0 7.0 0 ------- null}
- -t 0.47096 -s 3 -d 11 -p tcp -e 40 -c 1 -i 0 -a 1 -x {1.0 7.0 0 ------- null}
h -t 0.47096 -s 3 -d 11 -p tcp -e 40 -c 1 -i 0 -a 1 -x {1.0 7.0 -1 ------- null}
d -t 0.470964 -s 10 -d 11 -p tcp -e 40 -c 1 -i 0 -a 1 -x {1.0 7.0 0 ------- null}
d -t 0.470964 -s 9 -d 11 -p tcp -e 40 -c 1 -i 0 -a 1 -x {1.0 7.0 0 ------- null}
d -t 0.470964 -s 8 -d 11 -p tcp -e 40 -c 1 -i 0 -a 1 -x {1.0 7.0 0 ------- null}
d -t 0.470964 -s 6 -d 11 -p tcp -e 40 -c 1 -i 0 -a 1 -x {1.0 7.0 0 ------- null}
d -t 0.470964 -s 5 -d 11 -p tcp -e 40 -c 1 -i 0 -a 1 -x {1.0 7.0 0 ------- null}
d -t 0.470964 -s 4 -d 11 -p tcp -e 40 -c 1 -i 0 -a 1 -x {1.0 7.0 0 ------- null}
+ -t 0.506 -s 3 -d 11 -p tcp -e 1500 -c 2 -i 1 -a 2 -x {2.0 8.0 0 ------- null}
- -t 0.506 -s 3 -d 11 -p tcp -e 1500 -c 2 -i 1 -a 2 -x {2.0 8.0 0 ------- null}
h -t 0.506 -s 3 -d 11 -p tcp -e 1500 -c 2 -i 1 -a 2 -x {2.0 8.0 -1 ------- null}
d -t 0.506004 -s 10 -d 11 -p tcp -e 1500 -c 2 -i 1 -a 2 -x {2.0 8.0 0 ------- null}
d -t 0.506004 -s 9 -d 11 -p tcp -e 1500 -c 2 -i 1 -a 2 -x {2.0 8.0 0 ------- null}
d -t 0.506004 -s 7 -d 11 -p tcp -e 1500 -c 2 -i 1 -a 2 -x {2.0 8.0 0 ------- null}
d -t 0.506004 -s 6 -d 11 -p tcp -e 1500 -c 2 -i 1 -a 2 -x {2.0 8.0 0 ------- null}
d -t 0.506004 -s 5 -d 11 -p tcp -e 1500 -c 2 -i 1 -a 2 -x {2.0 8.0 0 ------- null}
d -t 0.506004 -s 4 -d 11 -p tcp -e 1500 -c 2 -i 1 -a 2 -x {2.0 8.0 0 ------- null}
r -t 0.520964 -s 11 -d 7 -p tcp -e 40 -c 1 -i 0 -a 1 -x {1.0 7.0 0 ------- null}
h -t 0.520964 -s 7 -d 11 -p ack -e 40 -c 1 -i 2 -a 1 -x {7.0 1.0 0 ------- null}
r -t 0.556004 -s 11 -d 8 -p tcp -e 1500 -c 2 -i 1 -a 2 -x {2.0 8.0 0 ------- null}
h -t 0.556004 -s 8 -d 11 -p ack -e 40 -c 2 -i 3 -a 2 -x {8.0 2.0 0 ------- null}
+ -t 0.570964 -s 7 -d 11 -p ack -e 40 -c 1 -i 2 -a 1 -x {7.0 1.0 0 ------- null}
- -t 0.570964 -s 7 -d 11 -p ack -e 40 -c 1 -i 2 -a 1 -x {7.0 1.0 0 ------- null}
h -t 0.570964 -s 7 -d 11 -p ack -e 40 -c 1 -i 2 -a 1 -x {7.0 1.0 -1 ------- null}
d -t 0.570968 -s 10 -d 11 -p ack -e 40 -c 1 -i 2 -a 1 -x {7.0 1.0 0 ------- null}
d -t 0.570968 -s 9 -d 11 -p ack -e 40 -c 1 -i 2 -a 1 -x {7.0 1.0 0 ------- null}
d -t 0.570968 -s 8 -d 11 -p ack -e 40 -c 1 -i 2 -a 1 -x {7.0 1.0 0 ------- null}
d -t 0.570968 -s 6 -d 11 -p ack -e 40 -c 1 -i 2 -a 1 -x {7.0 1.0 0 ------- null}
d -t 0.570968 -s 5 -d 11 -p ack -e 40 -c 1 -i 2 -a 1 -x {7.0 1.0 0 ------- null}
d -t 0.570968 -s 4 -d 11 -p ack -e 40 -c 1 -i 2 -a 1 -x {7.0 1.0 0 ------- null}
+ -t 0.606004 -s 8 -d 11 -p ack -e 40 -c 2 -i 3 -a 2 -x {8.0 2.0 0 ------- null}
- -t 0.606004 -s 8 -d 11 -p ack -e 40 -c 2 -i 3 -a 2 -x {8.0 2.0 0 ------- null}
h -t 0.606004 -s 8 -d 11 -p ack -e 40 -c 2 -i 3 -a 2 -x {8.0 2.0 -1 ------- null}
d -t 0.606008 -s 10 -d 11 -p ack -e 40 -c 2 -i 3 -a 2 -x {8.0 2.0 0 ------- null}
d -t 0.606008 -s 9 -d 11 -p ack -e 40 -c 2 -i 3 -a 2 -x {8.0 2.0 0 ------- null}
d -t 0.606008 -s 7 -d 11 -p ack -e 40 -c 2 -i 3 -a 2 -x {8.0 2.0 0 ------- null}
d -t 0.606008 -s 6 -d 11 -p ack -e 40 -c 2 -i 3 -a 2 -x {8.0 2.0 0 ------- null}
d -t 0.606008 -s 5 -d 11 -p ack -e 40 -c 2 -i 3 -a 2 -x {8.0 2.0 0 ------- null}
d -t 0.606008 -s 4 -d 11 -p ack -e 40 -c 2 -i 3 -a 2 -x {8.0 2.0 0 ------- null}
r -t 0.620968 -s 11 -d 3 -p ack -e 40 -c 1 -i 2 -a 1 -x {7.0 1.0 0 ------- null}
+ -t 0.620968 -s 3 -d 0 -p ack -e 40 -c 1 -i 2 -a 1 -x {7.0 1.0 0 ------- null}
- -t 0.620968 -s 3 -d 0 -p ack -e 40 -c 1 -i 2 -a 1 -x {7.0 1.0 0 ------- null}
h -t 0.620968 -s 3 -d 0 -p ack -e 40 -c 1 -i 2 -a 1 -x {7.0 1.0 -1 ------- null}
r -t 0.656008 -s 11 -d 3 -p ack -e 40 -c 2 -i 3 -a 2 -x {8.0 2.0 0 ------- null}
+ -t 0.656008 -s 3 -d 0 -p ack -e 40 -c 2 -i 3 -a 2 -x {8.0 2.0 0 ------- null}
- -t 0.656008 -s 3 -d 0 -p ack -e 40 -c 2 -i 3 -a 2 -x {8.0 2.0 0 ------- null}
h -t 0.656008 -s 3 -d 0 -p ack -e 40 -c 2 -i 3 -a 2 -x {8.0 2.0 -1 ------- null}
r -t 0.681608 -s 3 -d 0 -p ack -e 40 -c 1 -i 2 -a 1 -x {7.0 1.0 0 ------- null}
+ -t 0.681608 -s 0 -d 1 -p ack -e 40 -c 1 -i 2 -a 1 -x {7.0 1.0 0 ------- null}
- -t 0.681608 -s 0 -d 1 -p ack -e 40 -c 1 -i 2 -a 1 -x {7.0 1.0 0 ------- null}
h -t 0.681608 -s 0 -d 1 -p ack -e 40 -c 1 -i 2 -a 1 -x {7.0 1.0 -1 ------- null}
r -t 0.716648 -s 3 -d 0 -p ack -e 40 -c 2 -i 3 -a 2 -x {8.0 2.0 0 ------- null}
+ -t 0.716648 -s 0 -d 2 -p ack -e 40 -c 2 -i 3 -a 2 -x {8.0 2.0 0 ------- null}
- -t 0.716648 -s 0 -d 2 -p ack -e 40 -c 2 -i 3 -a 2 -x {8.0 2.0 0 ------- null}
h -t 0.716648 -s 0 -d 2 -p ack -e 40 -c 2 -i 3 -a 2 -x {8.0 2.0 -1 ------- null}
r -t 0.741928 -s 0 -d 1 -p ack -e 40 -c 1 -i 2 -a 1 -x {7.0 1.0 0 ------- null}
+ -t 0.741928 -s 1 -d 0 -p tcp -e 1540 -c 1 -i 4 -a 1 -x {1.0 7.0 1 ------- null}
- -t 0.741928 -s 1 -d 0 -p tcp -e 1540 -c 1 -i 4 -a 1 -x {1.0 7.0 1 ------- null}
h -t 0.741928 -s 1 -d 0 -p tcp -e 1540 -c 1 -i 4 -a 1 -x {1.0 7.0 -1 ------- null}
+ -t 0.741928 -s 1 -d 0 -p tcp -e 1540 -c 1 -i 5 -a 1 -x {1.0 7.0 2 ------- null}
- -t 0.754248 -s 1 -d 0 -p tcp -e 1540 -c 1 -i 5 -a 1 -x {1.0 7.0 2 ------- null}
h -t 0.754248 -s 1 -d 0 -p tcp -e 1540 -c 1 -i 5 -a 1 -x {1.0 7.0 -1 ------- null}
r -t 0.776968 -s 0 -d 2 -p ack -e 40 -c 2 -i 3 -a 2 -x {8.0 2.0 0 ------- null}
+ -t 0.776968 -s 2 -d 0 -p tcp -e 1500 -c 2 -i 6 -a 2 -x {2.0 8.0 1 ------- null}
- -t 0.776968 -s 2 -d 0 -p tcp -e 1500 -c 2 -i 6 -a 2 -x {2.0 8.0 1 ------- null}
h -t 0.776968 -s 2 -d 0 -p tcp -e 1500 -c 2 -i 6 -a 2 -x {2.0 8.0 -1 ------- null}
r -t 0.814248 -s 1 -d 0 -p tcp -e 1540 -c 1 -i 4 -a 1 -x {1.0 7.0 1 ------- null}
+ -t 0.814248 -s 0 -d 3 -p tcp -e 1540 -c 1 -i 4 -a 1 -x {1.0 7.0 1 ------- null}
- -t 0.814248 -s 0 -d 3 -p tcp -e 1540 -c 1 -i 4 -a 1 -x {1.0 7.0 1 ------- null}
h -t 0.814248 -s 0 -d 3 -p tcp -e 1540 -c 1 -i 4 -a 1 -x {1.0 7.0 -1 ------- null}
r -t 0.826568 -s 1 -d 0 -p tcp -e 1540 -c 1 -i 5 -a 1 -x {1.0 7.0 2 ------- null}
+ -t 0.826568 -s 0 -d 3 -p tcp -e 1540 -c 1 -i 5 -a 1 -x {1.0 7.0 2 ------- null}
- -t 0.838888 -s 0 -d 3 -p tcp -e 1540 -c 1 -i 5 -a 1 -x {1.0 7.0 2 ------- null}
h -t 0.838888 -s 0 -d 3 -p tcp -e 1540 -c 1 -i 5 -a 1 -x {1.0 7.0 -1 ------- null}
r -t 0.848968 -s 2 -d 0 -p tcp -e 1500 -c 2 -i 6 -a 2 -x {2.0 8.0 1 ------- null}
+ -t 0.848968 -s 0 -d 3 -p tcp -e 1500 -c 2 -i 6 -a 2 -x {2.0 8.0 1 ------- null}
- -t 0.863528 -s 0 -d 3 -p tcp -e 1500 -c 2 -i 6 -a 2 -x {2.0 8.0 1 ------- null}
h -t 0.863528 -s 0 -d 3 -p tcp -e 1500 -c 2 -i 6 -a 2 -x {2.0 8.0 -1 ------- null}
r -t 0.898888 -s 0 -d 3 -p tcp -e 1540 -c 1 -i 4 -a 1 -x {1.0 7.0 1 ------- null}
h -t 0.898888 -s 3 -d 11 -p tcp -e 1540 -c 1 -i 4 -a 1 -x {1.0 7.0 1 ------- null}
r -t 0.923528 -s 0 -d 3 -p tcp -e 1540 -c 1 -i 5 -a 1 -x {1.0 7.0 2 ------- null}
h -t 0.923528 -s 3 -d 11 -p tcp -e 1540 -c 1 -i 5 -a 1 -x {1.0 7.0 2 ------- null}
r -t 0.947528 -s 0 -d 3 -p tcp -e 1500 -c 2 -i 6 -a 2 -x {2.0 8.0 1 ------- null}
h -t 0.947528 -s 3 -d 11 -p tcp -e 1500 -c 2 -i 6 -a 2 -x {2.0 8.0 1 ------- null}
+ -t 0.948888 -s 3 -d 11 -p tcp -e 1540 -c 1 -i 4 -a 1 -x {1.0 7.0 1 ------- null}
- -t 0.948888 -s 3 -d 11 -p tcp -e 1540 -c 1 -i 4 -a 1 -x {1.0 7.0 1 ------- null}
h -t 0.948888 -s 3 -d 11 -p tcp -e 1540 -c 1 -i 4 -a 1 -x {1.0 7.0 -1 ------- null}
d -t 0.948892 -s 10 -d 11 -p tcp -e 1540 -c 1 -i 4 -a 1 -x {1.0 7.0 1 ------- null}
d -t 0.948892 -s 9 -d 11 -p tcp -e 1540 -c 1 -i 4 -a 1 -x {1.0 7.0 1 ------- null}
d -t 0.948892 -s 8 -d 11 -p tcp -e 1540 -c 1 -i 4 -a 1 -x {1.0 7.0 1 ------- null}
d -t 0.948892 -s 6 -d 11 -p tcp -e 1540 -c 1 -i 4 -a 1 -x {1.0 7.0 1 ------- null}
d -t 0.948892 -s 5 -d 11 -p tcp -e 1540 -c 1 -i 4 -a 1 -x {1.0 7.0 1 ------- null}
d -t 0.948892 -s 4 -d 11 -p tcp -e 1540 -c 1 -i 4 -a 1 -x {1.0 7.0 1 ------- null}
+ -t 0.973528 -s 3 -d 11 -p tcp -e 1540 -c 1 -i 5 -a 1 -x {1.0 7.0 2 ------- null}
- -t 0.973528 -s 3 -d 11 -p tcp -e 1540 -c 1 -i 5 -a 1 -x {1.0 7.0 2 ------- null}
h -t 0.973528 -s 3 -d 11 -p tcp -e 1540 -c 1 -i 5 -a 1 -x {1.0 7.0 -1 ------- null}
d -t 0.973532 -s 10 -d 11 -p tcp -e 1540 -c 1 -i 5 -a 1 -x {1.0 7.0 2 ------- null}
d -t 0.973532 -s 9 -d 11 -p tcp -e 1540 -c 1 -i 5 -a 1 -x {1.0 7.0 2 ------- null}
d -t 0.973532 -s 8 -d 11 -p tcp -e 1540 -c 1 -i 5 -a 1 -x {1.0 7.0 2 ------- null}
d -t 0.973532 -s 6 -d 11 -p tcp -e 1540 -c 1 -i 5 -a 1 -x {1.0 7.0 2 ------- null}
d -t 0.973532 -s 5 -d 11 -p tcp -e 1540 -c 1 -i 5 -a 1 -x {1.0 7.0 2 ------- null}
d -t 0.973532 -s 4 -d 11 -p tcp -e 1540 -c 1 -i 5 -a 1 -x {1.0 7.0 2 ------- null}
+ -t 0.997528 -s 3 -d 11 -p tcp -e 1500 -c 2 -i 6 -a 2 -x {2.0 8.0 1 ------- null}
- -t 0.997528 -s 3 -d 11 -p tcp -e 1500 -c 2 -i 6 -a 2 -x {2.0 8.0 1 ------- null}
h -t 0.997528 -s 3 -d 11 -p tcp -e 1500 -c 2 -i 6 -a 2 -x {2.0 8.0 -1 ------- null}
d -t 0.997532 -s 10 -d 11 -p tcp -e 1500 -c 2 -i 6 -a 2 -x {2.0 8.0 1 ------- null}
d -t 0.997532 -s 9 -d 11 -p tcp -e 1500 -c 2 -i 6 -a 2 -x {2.0 8.0 1 ------- null}
d -t 0.997532 -s 7 -d 11 -p tcp -e 1500 -c 2 -i 6 -a 2 -x {2.0 8.0 1 ------- null}
d -t 0.997532 -s 6 -d 11 -p tcp -e 1500 -c 2 -i 6 -a 2 -x {2.0 8.0 1 ------- null}
d -t 0.997532 -s 5 -d 11 -p tcp -e 1500 -c 2 -i 6 -a 2 -x {2.0 8.0 1 ------- null}
d -t 0.997532 -s 4 -d 11 -p tcp -e 1500 -c 2 -i 6 -a 2 -x {2.0 8.0 1 ------- null}
r -t 0.998892 -s 11 -d 7 -p tcp -e 1540 -c 1 -i 4 -a 1 -x {1.0 7.0 1 ------- null}
h -t 0.998892 -s 7 -d 11 -p ack -e 40 -c 1 -i 7 -a 1 -x {7.0 1.0 1 ------- null}
r -t 1.023532 -s 11 -d 7 -p tcp -e 1540 -c 1 -i 5 -a 1 -x {1.0 7.0 2 ------- null}
h -t 1.023532 -s 7 -d 11 -p ack -e 40 -c 1 -i 8 -a 1 -x {7.0 1.0 2 ------- null}
r -t 1.047532 -s 11 -d 8 -p tcp -e 1500 -c 2 -i 6 -a 2 -x {2.0 8.0 1 ------- null}
h -t 1.047532 -s 8 -d 11 -p ack -e 40 -c 2 -i 9 -a 2 -x {8.0 2.0 1 ------- null}
+ -t 1.048892 -s 7 -d 11 -p ack -e 40 -c 1 -i 7 -a 1 -x {7.0 1.0 1 ------- null}
- -t 1.048892 -s 7 -d 11 -p ack -e 40 -c 1 -i 7 -a 1 -x {7.0 1.0 1 ------- null}
h -t 1.048892 -s 7 -d 11 -p ack -e 40 -c 1 -i 7 -a 1 -x {7.0 1.0 -1 ------- null}
d -t 1.048896 -s 10 -d 11 -p ack -e 40 -c 1 -i 7 -a 1 -x {7.0 1.0 1 ------- null}
d -t 1.048896 -s 9 -d 11 -p ack -e 40 -c 1 -i 7 -a 1 -x {7.0 1.0 1 ------- null}
d -t 1.048896 -s 8 -d 11 -p ack -e 40 -c 1 -i 7 -a 1 -x {7.0 1.0 1 ------- null}
d -t 1.048896 -s 6 -d 11 -p ack -e 40 -c 1 -i 7 -a 1 -x {7.0 1.0 1 ------- null}
d -t 1.048896 -s 5 -d 11 -p ack -e 40 -c 1 -i 7 -a 1 -x {7.0 1.0 1 ------- null}
d -t 1.048896 -s 4 -d 11 -p ack -e 40 -c 1 -i 7 -a 1 -x {7.0 1.0 1 ------- null}
+ -t 1.073532 -s 7 -d 11 -p ack -e 40 -c 1 -i 8 -a 1 -x {7.0 1.0 2 ------- null}
- -t 1.073532 -s 7 -d 11 -p ack -e 40 -c 1 -i 8 -a 1 -x {7.0 1.0 2 ------- null}
h -t 1.073532 -s 7 -d 11 -p ack -e 40 -c 1 -i 8 -a 1 -x {7.0 1.0 -1 ------- null}
d -t 1.073536 -s 10 -d 11 -p ack -e 40 -c 1 -i 8 -a 1 -x {7.0 1.0 2 ------- null}
d -t 1.073536 -s 9 -d 11 -p ack -e 40 -c 1 -i 8 -a 1 -x {7.0 1.0 2 ------- null}
d -t 1.073536 -s 8 -d 11 -p ack -e 40 -c 1 -i 8 -a 1 -x {7.0 1.0 2 ------- null}
d -t 1.073536 -s 6 -d 11 -p ack -e 40 -c 1 -i 8 -a 1 -x {7.0 1.0 2 ------- null}
d -t 1.073536 -s 5 -d 11 -p ack -e 40 -c 1 -i 8 -a 1 -x {7.0 1.0 2 ------- null}
d -t 1.073536 -s 4 -d 11 -p ack -e 40 -c 1 -i 8 -a 1 -x {7.0 1.0 2 ------- null}
+ -t 1.097532 -s 8 -d 11 -p ack -e 40 -c 2 -i 9 -a 2 -x {8.0 2.0 1 ------- null}
- -t 1.097532 -s 8 -d 11 -p ack -e 40 -c 2 -i 9 -a 2 -x {8.0 2.0 1 ------- null}
h -t 1.097532 -s 8 -d 11 -p ack -e 40 -c 2 -i 9 -a 2 -x {8.0 2.0 -1 ------- null}
d -t 1.097536 -s 10 -d 11 -p ack -e 40 -c 2 -i 9 -a 2 -x {8.0 2.0 1 ------- null}
d -t 1.097536 -s 9 -d 11 -p ack -e 40 -c 2 -i 9 -a 2 -x {8.0 2.0 1 ------- null}
d -t 1.097536 -s 7 -d 11 -p ack -e 40 -c 2 -i 9 -a 2 -x {8.0 2.0 1 ------- null}
d -t 1.097536 -s 6 -d 11 -p ack -e 40 -c 2 -i 9 -a 2 -x {8.0 2.0 1 ------- null}
d -t 1.097536 -s 5 -d 11 -p ack -e 40 -c 2 -i 9 -a 2 -x {8.0 2.0 1 ------- null}
d -t 1.097536 -s 4 -d 11 -p ack -e 40 -c 2 -i 9 -a 2 -x {8.0 2.0 1 ------- null}
r -t 1.098896 -s 11 -d 3 -p ack -e 40 -c 1 -i 7 -a 1 -x {7.0 1.0 1 ------- null}
+ -t 1.098896 -s 3 -d 0 -p ack -e 40 -c 1 -i 7 -a 1 -x {7.0 1.0 1 ------- null}
- -t 1.098896 -s 3 -d 0 -p ack -e 40 -c 1 -i 7 -a 1 -x {7.0 1.0 1 ------- null}
h -t 1.098896 -s 3 -d 0 -p ack -e 40 -c 1 -i 7 -a 1 -x {7.0 1.0 -1 ------- null}
r -t 1.123536 -s 11 -d 3 -p ack -e 40 -c 1 -i 8 -a 1 -x {7.0 1.0 2 ------- null}
+ -t 1.123536 -s 3 -d 0 -p ack -e 40 -c 1 -i 8 -a 1 -x {7.0 1.0 2 ------- null}
- -t 1.123536 -s 3 -d 0 -p ack -e 40 -c 1 -i 8 -a 1 -x {7.0 1.0 2 ------- null}
h -t 1.123536 -s 3 -d 0 -p ack -e 40 -c 1 -i 8 -a 1 -x {7.0 1.0 -1 ------- null}
r -t 1.147536 -s 11 -d 3 -p ack -e 40 -c 2 -i 9 -a 2 -x {8.0 2.0 1 ------- null}
+ -t 1.147536 -s 3 -d 0 -p ack -e 40 -c 2 -i 9 -a 2 -x {8.0 2.0 1 ------- null}
- -t 1.147536 -s 3 -d 0 -p ack -e 40 -c 2 -i 9 -a 2 -x {8.0 2.0 1 ------- null}
h -t 1.147536 -s 3 -d 0 -p ack -e 40 -c 2 -i 9 -a 2 -x {8.0 2.0 -1 ------- null}
r -t 1.159536 -s 3 -d 0 -p ack -e 40 -c 1 -i 7 -a 1 -x {7.0 1.0 1 ------- null}
+ -t 1.159536 -s 0 -d 1 -p ack -e 40 -c 1 -i 7 -a 1 -x {7.0 1.0 1 ------- null}
- -t 1.159536 -s 0 -d 1 -p ack -e 40 -c 1 -i 7 -a 1 -x {7.0 1.0 1 ------- null}
h -t 1.159536 -s 0 -d 1 -p ack -e 40 -c 1 -i 7 -a 1 -x {7.0 1.0 -1 ------- null}
r -t 1.184176 -s 3 -d 0 -p ack -e 40 -c 1 -i 8 -a 1 -x {7.0 1.0 2 ------- null}
+ -t 1.184176 -s 0 -d 1 -p ack -e 40 -c 1 -i 8 -a 1 -x {7.0 1.0 2 ------- null}
- -t 1.184176 -s 0 -d 1 -p ack -e 40 -c 1 -i 8 -a 1 -x {7.0 1.0 2 ------- null}
h -t 1.184176 -s 0 -d 1 -p ack -e 40 -c 1 -i 8 -a 1 -x {7.0 1.0 -1 ------- null}
r -t 1.208176 -s 3 -d 0 -p ack -e 40 -c 2 -i 9 -a 2 -x {8.0 2.0 1 ------- null}
+ -t 1.208176 -s 0 -d 2 -p ack -e 40 -c 2 -i 9 -a 2 -x {8.0 2.0 1 ------- null}
- -t 1.208176 -s 0 -d 2 -p ack -e 40 -c 2 -i 9 -a 2 -x {8.0 2.0 1 ------- null}
h -t 1.208176 -s 0 -d 2 -p ack -e 40 -c 2 -i 9 -a 2 -x {8.0 2.0 -1 ------- null}
r -t 1.219856 -s 0 -d 1 -p ack -e 40 -c 1 -i 7 -a 1 -x {7.0 1.0 1 ------- null}
+ -t 1.219856 -s 1 -d 0 -p tcp -e 1540 -c 1 -i 10 -a 1 -x {1.0 7.0 3 ------- null}
- -t 1.219856 -s 1 -d 0 -p tcp -e 1540 -c 1 -i 10 -a 1 -x {1.0 7.0 3 ------- null}
h -t 1.219856 -s 1 -d 0 -p tcp -e 1540 -c 1 -i 10 -a 1 -x {1.0 7.0 -1 ------- null}
+ -t 1.219856 -s 1 -d 0 -p tcp -e 1540 -c 1 -i 11 -a 1 -x {1.0 7.0 4 ------- null}
- -t 1.232176 -s 1 -d 0 -p tcp -e 1540 -c 1 -i 11 -a 1 -x {1.0 7.0 4 ------- null}
h -t 1.232176 -s 1 -d 0 -p tcp -e 1540 -c 1 -i 11 -a 1 -x {1.0 7.0 -1 ------- null}
r -t 1.244496 -s 0 -d 1 -p ack -e 40 -c 1 -i 8 -a 1 -x {7.0 1.0 2 ------- null}
+ -t 1.244496 -s 1 -d 0 -p tcp -e 1540 -c 1 -i 12 -a 1 -x {1.0 7.0 5 ------- null}
+ -t 1.244496 -s 1 -d 0 -p tcp -e 1540 -c 1 -i 13 -a 1 -x {1.0 7.0 6 ------- null}
- -t 1.244496 -s 1 -d 0 -p tcp -e 1540 -c 1 -i 12 -a 1 -x {1.0 7.0 5 ------- null}
h -t 1.244496 -s 1 -d 0 -p tcp -e 1540 -c 1 -i 12 -a 1 -x {1.0 7.0 -1 ------- null}
- -t 1.256816 -s 1 -d 0 -p tcp -e 1540 -c 1 -i 13 -a 1 -x {1.0 7.0 6 ------- null}
h -t 1.256816 -s 1 -d 0 -p tcp -e 1540 -c 1 -i 13 -a 1 -x {1.0 7.0 -1 ------- null}
r -t 1.268496 -s 0 -d 2 -p ack -e 40 -c 2 -i 9 -a 2 -x {8.0 2.0 1 ------- null}
+ -t 1.268496 -s 2 -d 0 -p tcp -e 1500 -c 2 -i 14 -a 2 -x {2.0 8.0 2 ------- null}
- -t 1.268496 -s 2 -d 0 -p tcp -e 1500 -c 2 -i 14 -a 2 -x {2.0 8.0 2 ------- null}
h -t 1.268496 -s 2 -d 0 -p tcp -e 1500 -c 2 -i 14 -a 2 -x {2.0 8.0 -1 ------- null}
+ -t 1.268496 -s 2 -d 0 -p tcp -e 1500 -c 2 -i 15 -a 2 -x {2.0 8.0 3 ------- null}
+ -t 1.268496 -s 2 -d 0 -p tcp -e 1500 -c 2 -i 16 -a 2 -x {2.0 8.0 4 ------- null}
- -t 1.280496 -s 2 -d 0 -p tcp -e 1500 -c 2 -i 15 -a 2 -x {2.0 8.0 3 ------- null}
h -t 1.280496 -s 2 -d 0 -p tcp -e 1500 -c 2 -i 15 -a 2 -x {2.0 8.0 -1 ------- null}
r -t 1.292176 -s 1 -d 0 -p tcp -e 1540 -c 1 -i 10 -a 1 -x {1.0 7.0 3 ------- null}
+ -t 1.292176 -s 0 -d 3 -p tcp -e 1540 -c 1 -i 10 -a 1 -x {1.0 7.0 3 ------- null}
- -t 1.292176 -s 0 -d 3 -p tcp -e 1540 -c 1 -i 10 -a 1 -x {1.0 7.0 3 ------- null}
h -t 1.292176 -s 0 -d 3 -p tcp -e 1540 -c 1 -i 10 -a 1 -x {1.0 7.0 -1 ------- null}
- -t 1.292496 -s 2 -d 0 -p tcp -e 1500 -c 2 -i 16 -a 2 -x {2.0 8.0 4 ------- null}
h -t 1.292496 -s 2 -d 0 -p tcp -e 1500 -c 2 -i 16 -a 2 -x {2.0 8.0 -1 ------- null}
r -t 1.304496 -s 1 -d 0 -p tcp -e 1540 -c 1 -i 11 -a 1 -x {1.0 7.0 4 ------- null}
+ -t 1.304496 -s 0 -d 3 -p tcp -e 1540 -c 1 -i 11 -a 1 -x {1.0 7.0 4 ------- null}
- -t 1.316816 -s 0 -d 3 -p tcp -e 1540 -c 1 -i 11 -a 1 -x {1.0 7.0 4 ------- null}
h -t 1.316816 -s 0 -d 3 -p tcp -e 1540 -c 1 -i 11 -a 1 -x {1.0 7.0 -1 ------- null}
r -t 1.316816 -s 1 -d 0 -p tcp -e 1540 -c 1 -i 12 -a 1 -x {1.0 7.0 5 ------- null}
+ -t 1.316816 -s 0 -d 3 -p tcp -e 1540 -c 1 -i 12 -a 1 -x {1.0 7.0 5 ------- null}
r -t 1.329136 -s 1 -d 0 -p tcp -e 1540 -c 1 -i 13 -a 1 -x {1.0 7.0 6 ------- null}
+ -t 1.329136 -s 0 -d 3 -p tcp -e 1540 -c 1 -i 13 -a 1 -x {1.0 7.0 6 ------- null}
r -t 1.340496 -s 2 -d 0 -p tcp -e 1500 -c 2 -i 14 -a 2 -x {2.0 8.0 2 ------- null}
+ -t 1.340496 -s 0 -d 3 -p tcp -e 1500 -c 2 -i 14 -a 2 -x {2.0 8.0 2 ------- null}
- -t 1.341456 -s 0 -d 3 -p tcp -e 1540 -c 1 -i 12 -a 1 -x {1.0 7.0 5 ------- null}
h -t 1.341456 -s 0 -d 3 -p tcp -e 1540 -c 1 -i 12 -a 1 -x {1.0 7.0 -1 ------- null}
r -t 1.352496 -s 2 -d 0 -p tcp -e 1500 -c 2 -i 15 -a 2 -x {2.0 8.0 3 ------- null}
+ -t 1.352496 -s 0 -d 3 -p tcp -e 1500 -c 2 -i 15 -a 2 -x {2.0 8.0 3 ------- null}
r -t 1.364496 -s 2 -d 0 -p tcp -e 1500 -c 2 -i 16 -a 2 -x {2.0 8.0 4 ------- null}
+ -t 1.364496 -s 0 -d 3 -p tcp -e 1500 -c 2 -i 16 -a 2 -x {2.0 8.0 4 ------- null}
- -t 1.366096 -s 0 -d 3 -p tcp -e 1540 -c 1 -i 13 -a 1 -x {1.0 7.0 6 ------- null}
h -t 1.366096 -s 0 -d 3 -p tcp -e 1540 -c 1 -i 13 -a 1 -x {1.0 7.0 -1 ------- null}
r -t 1.376816 -s 0 -d 3 -p tcp -e 1540 -c 1 -i 10 -a 1 -x {1.0 7.0 3 ------- null}
h -t 1.376816 -s 3 -d 11 -p tcp -e 1540 -c 1 -i 10 -a 1 -x {1.0 7.0 3 ------- null}
- -t 1.390736 -s 0 -d 3 -p tcp -e 1500 -c 2 -i 14 -a 2 -x {2.0 8.0 2 ------- null}
h -t 1.390736 -s 0 -d 3 -p tcp -e 1500 -c 2 -i 14 -a 2 -x {2.0 8.0 -1 ------- null}
r -t 1.401456 -s 0 -d 3 -p tcp -e 1540 -c 1 -i 11 -a 1 -x {1.0 7.0 4 ------- null}
h -t 1.401456 -s 3 -d 11 -p tcp -e 1540 -c 1 -i 11 -a 1 -x {1.0 7.0 4 ------- null}
- -t 1.414736 -s 0 -d 3 -p tcp -e 1500 -c 2 -i 15 -a 2 -x {2.0 8.0 3 ------- null}
h -t 1.414736 -s 0 -d 3 -p tcp -e 1500 -c 2 -i 15 -a 2 -x {2.0 8.0 -1 ------- null}
r -t 1.426096 -s 0 -d 3 -p tcp -e 1540 -c 1 -i 12 -a 1 -x {1.0 7.0 5 ------- null}
h -t 1.426096 -s 3 -d 11 -p tcp -e 1540 -c 1 -i 12 -a 1 -x {1.0 7.0 5 ------- null}
+ -t 1.426816 -s 3 -d 11 -p tcp -e 1540 -c 1 -i 10 -a 1 -x {1.0 7.0 3 ------- null}
- -t 1.426816 -s 3 -d 11 -p tcp -e 1540 -c 1 -i 10 -a 1 -x {1.0 7.0 3 ------- null}
h -t 1.426816 -s 3 -d 11 -p tcp -e 1540 -c 1 -i 10 -a 1 -x {1.0 7.0 -1 ------- null}
d -t 1.42682 -s 10 -d 11 -p tcp -e 1540 -c 1 -i 10 -a 1 -x {1.0 7.0 3 ------- null}
d -t 1.42682 -s 9 -d 11 -p tcp -e 1540 -c 1 -i 10 -a 1 -x {1.0 7.0 3 ------- null}
d -t 1.42682 -s 8 -d 11 -p tcp -e 1540 -c 1 -i 10 -a 1 -x {1.0 7.0 3 ------- null}
d -t 1.42682 -s 6 -d 11 -p tcp -e 1540 -c 1 -i 10 -a 1 -x {1.0 7.0 3 ------- null}
d -t 1.42682 -s 5 -d 11 -p tcp -e 1540 -c 1 -i 10 -a 1 -x {1.0 7.0 3 ------- null}
d -t 1.42682 -s 4 -d 11 -p tcp -e 1540 -c 1 -i 10 -a 1 -x {1.0 7.0 3 ------- null}
- -t 1.438736 -s 0 -d 3 -p tcp -e 1500 -c 2 -i 16 -a 2 -x {2.0 8.0 4 ------- null}
h -t 1.438736 -s 0 -d 3 -p tcp -e 1500 -c 2 -i 16 -a 2 -x {2.0 8.0 -1 ------- null}
r -t 1.450736 -s 0 -d 3 -p tcp -e 1540 -c 1 -i 13 -a 1 -x {1.0 7.0 6 ------- null}
h -t 1.450736 -s 3 -d 11 -p tcp -e 1540 -c 1 -i 13 -a 1 -x {1.0 7.0 6 ------- null}
+ -t 1.451456 -s 3 -d 11 -p tcp -e 1540 -c 1 -i 11 -a 1 -x {1.0 7.0 4 ------- null}
- -t 1.451456 -s 3 -d 11 -p tcp -e 1540 -c 1 -i 11 -a 1 -x {1.0 7.0 4 ------- null}
h -t 1.451456 -s 3 -d 11 -p tcp -e 1540 -c 1 -i 11 -a 1 -x {1.0 7.0 -1 ------- null}
d -t 1.45146 -s 10 -d 11 -p tcp -e 1540 -c 1 -i 11 -a 1 -x {1.0 7.0 4 ------- null}
d -t 1.45146 -s 9 -d 11 -p tcp -e 1540 -c 1 -i 11 -a 1 -x {1.0 7.0 4 ------- null}
d -t 1.45146 -s 8 -d 11 -p tcp -e 1540 -c 1 -i 11 -a 1 -x {1.0 7.0 4 ------- null}
d -t 1.45146 -s 6 -d 11 -p tcp -e 1540 -c 1 -i 11 -a 1 -x {1.0 7.0 4 ------- null}
d -t 1.45146 -s 5 -d 11 -p tcp -e 1540 -c 1 -i 11 -a 1 -x {1.0 7.0 4 ------- null}
d -t 1.45146 -s 4 -d 11 -p tcp -e 1540 -c 1 -i 11 -a 1 -x {1.0 7.0 4 ------- null}
r -t 1.474736 -s 0 -d 3 -p tcp -e 1500 -c 2 -i 14 -a 2 -x {2.0 8.0 2 ------- null}
h -t 1.474736 -s 3 -d 11 -p tcp -e 1500 -c 2 -i 14 -a 2 -x {2.0 8.0 2 ------- null}
+ -t 1.476096 -s 3 -d 11 -p tcp -e 1540 -c 1 -i 12 -a 1 -x {1.0 7.0 5 ------- null}
- -t 1.476096 -s 3 -d 11 -p tcp -e 1540 -c 1 -i 12 -a 1 -x {1.0 7.0 5 ------- null}
h -t 1.476096 -s 3 -d 11 -p tcp -e 1540 -c 1 -i 12 -a 1 -x {1.0 7.0 -1 ------- null}
d -t 1.4761 -s 10 -d 11 -p tcp -e 1540 -c 1 -i 12 -a 1 -x {1.0 7.0 5 ------- null}
d -t 1.4761 -s 9 -d 11 -p tcp -e 1540 -c 1 -i 12 -a 1 -x {1.0 7.0 5 ------- null}
d -t 1.4761 -s 8 -d 11 -p tcp -e 1540 -c 1 -i 12 -a 1 -x {1.0 7.0 5 ------- null}
d -t 1.4761 -s 6 -d 11 -p tcp -e 1540 -c 1 -i 12 -a 1 -x {1.0 7.0 5 ------- null}
d -t 1.4761 -s 5 -d 11 -p tcp -e 1540 -c 1 -i 12 -a 1 -x {1.0 7.0 5 ------- null}
d -t 1.4761 -s 4 -d 11 -p tcp -e 1540 -c 1 -i 12 -a 1 -x {1.0 7.0 5 ------- null}
r -t 1.47682 -s 11 -d 7 -p tcp -e 1540 -c 1 -i 10 -a 1 -x {1.0 7.0 3 ------- null}
h -t 1.47682 -s 7 -d 11 -p ack -e 40 -c 1 -i 17 -a 1 -x {7.0 1.0 3 ------- null}
r -t 1.498736 -s 0 -d 3 -p tcp -e 1500 -c 2 -i 15 -a 2 -x {2.0 8.0 3 ------- null}
h -t 1.498736 -s 3 -d 11 -p tcp -e 1500 -c 2 -i 15 -a 2 -x {2.0 8.0 3 ------- null}
+ -t 1.500736 -s 3 -d 11 -p tcp -e 1540 -c 1 -i 13 -a 1 -x {1.0 7.0 6 ------- null}
- -t 1.500736 -s 3 -d 11 -p tcp -e 1540 -c 1 -i 13 -a 1 -x {1.0 7.0 6 ------- null}
h -t 1.500736 -s 3 -d 11 -p tcp -e 1540 -c 1 -i 13 -a 1 -x {1.0 7.0 -1 ------- null}
d -t 1.50074 -s 10 -d 11 -p tcp -e 1540 -c 1 -i 13 -a 1 -x {1.0 7.0 6 ------- null}
d -t 1.50074 -s 9 -d 11 -p tcp -e 1540 -c 1 -i 13 -a 1 -x {1.0 7.0 6 ------- null}
d -t 1.50074 -s 8 -d 11 -p tcp -e 1540 -c 1 -i 13 -a 1 -x {1.0 7.0 6 ------- null}
d -t 1.50074 -s 6 -d 11 -p tcp -e 1540 -c 1 -i 13 -a 1 -x {1.0 7.0 6 ------- null}
d -t 1.50074 -s 5 -d 11 -p tcp -e 1540 -c 1 -i 13 -a 1 -x {1.0 7.0 6 ------- null}
d -t 1.50074 -s 4 -d 11 -p tcp -e 1540 -c 1 -i 13 -a 1 -x {1.0 7.0 6 ------- null}
r -t 1.50146 -s 11 -d 7 -p tcp -e 1540 -c 1 -i 11 -a 1 -x {1.0 7.0 4 ------- null}
h -t 1.50146 -s 7 -d 11 -p ack -e 40 -c 1 -i 18 -a 1 -x {7.0 1.0 4 ------- null}
r -t 1.522736 -s 0 -d 3 -p tcp -e 1500 -c 2 -i 16 -a 2 -x {2.0 8.0 4 ------- null}
h -t 1.522736 -s 3 -d 11 -p tcp -e 1500 -c 2 -i 16 -a 2 -x {2.0 8.0 4 ------- null}
+ -t 1.524736 -s 3 -d 11 -p tcp -e 1500 -c 2 -i 14 -a 2 -x {2.0 8.0 2 ------- null}
- -t 1.524736 -s 3 -d 11 -p tcp -e 1500 -c 2 -i 14 -a 2 -x {2.0 8.0 2 ------- null}
h -t 1.524736 -s 3 -d 11 -p tcp -e 1500 -c 2 -i 14 -a 2 -x {2.0 8.0 -1 ------- null}
d -t 1.52474 -s 10 -d 11 -p tcp -e 1500 -c 2 -i 14 -a 2 -x {2.0 8.0 2 ------- null}
d -t 1.52474 -s 9 -d 11 -p tcp -e 1500 -c 2 -i 14 -a 2 -x {2.0 8.0 2 ------- null}
d -t 1.52474 -s 7 -d 11 -p tcp -e 1500 -c 2 -i 14 -a 2 -x {2.0 8.0 2 ------- null}
d -t 1.52474 -s 6 -d 11 -p tcp -e 1500 -c 2 -i 14 -a 2 -x {2.0 8.0 2 ------- null}
d -t 1.52474 -s 5 -d 11 -p tcp -e 1500 -c 2 -i 14 -a 2 -x {2.0 8.0 2 ------- null}
d -t 1.52474 -s 4 -d 11 -p tcp -e 1500 -c 2 -i 14 -a 2 -x {2.0 8.0 2 ------- null}
r -t 1.5261 -s 11 -d 7 -p tcp -e 1540 -c 1 -i 12 -a 1 -x {1.0 7.0 5 ------- null}
h -t 1.5261 -s 7 -d 11 -p ack -e 40 -c 1 -i 19 -a 1 -x {7.0 1.0 5 ------- null}
+ -t 1.52682 -s 7 -d 11 -p ack -e 40 -c 1 -i 17 -a 1 -x {7.0 1.0 3 ------- null}
- -t 1.52682 -s 7 -d 11 -p ack -e 40 -c 1 -i 17 -a 1 -x {7.0 1.0 3 ------- null}
h -t 1.52682 -s 7 -d 11 -p ack -e 40 -c 1 -i 17 -a 1 -x {7.0 1.0 -1 ------- null}
d -t 1.526824 -s 10 -d 11 -p ack -e 40 -c 1 -i 17 -a 1 -x {7.0 1.0 3 ------- null}
d -t 1.526824 -s 9 -d 11 -p ack -e 40 -c 1 -i 17 -a 1 -x {7.0 1.0 3 ------- null}
d -t 1.526824 -s 8 -d 11 -p ack -e 40 -c 1 -i 17 -a 1 -x {7.0 1.0 3 ------- null}
d -t 1.526824 -s 6 -d 11 -p ack -e 40 -c 1 -i 17 -a 1 -x {7.0 1.0 3 ------- null}
d -t 1.526824 -s 5 -d 11 -p ack -e 40 -c 1 -i 17 -a 1 -x {7.0 1.0 3 ------- null}
d -t 1.526824 -s 4 -d 11 -p ack -e 40 -c 1 -i 17 -a 1 -x {7.0 1.0 3 ------- null}
+ -t 1.548736 -s 3 -d 11 -p tcp -e 1500 -c 2 -i 15 -a 2 -x {2.0 8.0 3 ------- null}
- -t 1.548736 -s 3 -d 11 -p tcp -e 1500 -c 2 -i 15 -a 2 -x {2.0 8.0 3 ------- null}
h -t 1.548736 -s 3 -d 11 -p tcp -e 1500 -c 2 -i 15 -a 2 -x {2.0 8.0 -1 ------- null}
d -t 1.54874 -s 10 -d 11 -p tcp -e 1500 -c 2 -i 15 -a 2 -x {2.0 8.0 3 ------- null}
d -t 1.54874 -s 9 -d 11 -p tcp -e 1500 -c 2 -i 15 -a 2 -x {2.0 8.0 3 ------- null}
d -t 1.54874 -s 7 -d 11 -p tcp -e 1500 -c 2 -i 15 -a 2 -x {2.0 8.0 3 ------- null}
d -t 1.54874 -s 6 -d 11 -p tcp -e 1500 -c 2 -i 15 -a 2 -x {2.0 8.0 3 ------- null}
d -t 1.54874 -s 5 -d 11 -p tcp -e 1500 -c 2 -i 15 -a 2 -x {2.0 8.0 3 ------- null}
d -t 1.54874 -s 4 -d 11 -p tcp -e 1500 -c 2 -i 15 -a 2 -x {2.0 8.0 3 ------- null}
r -t 1.55074 -s 11 -d 7 -p tcp -e 1540 -c 1 -i 13 -a 1 -x {1.0 7.0 6 ------- null}
h -t 1.55074 -s 7 -d 11 -p ack -e 40 -c 1 -i 20 -a 1 -x {7.0 1.0 6 ------- null}
+ -t 1.55146 -s 7 -d 11 -p ack -e 40 -c 1 -i 18 -a 1 -x {7.0 1.0 4 ------- null}
- -t 1.55146 -s 7 -d 11 -p ack -e 40 -c 1 -i 18 -a 1 -x {7.0 1.0 4 ------- null}
h -t 1.55146 -s 7 -d 11 -p ack -e 40 -c 1 -i 18 -a 1 -x {7.0 1.0 -1 ------- null}
d -t 1.551464 -s 10 -d 11 -p ack -e 40 -c 1 -i 18 -a 1 -x {7.0 1.0 4 ------- null}
d -t 1.551464 -s 9 -d 11 -p ack -e 40 -c 1 -i 18 -a 1 -x {7.0 1.0 4 ------- null}
d -t 1.551464 -s 8 -d 11 -p ack -e 40 -c 1 -i 18 -a 1 -x {7.0 1.0 4 ------- null}
d -t 1.551464 -s 6 -d 11 -p ack -e 40 -c 1 -i 18 -a 1 -x {7.0 1.0 4 ------- null}
d -t 1.551464 -s 5 -d 11 -p ack -e 40 -c 1 -i 18 -a 1 -x {7.0 1.0 4 ------- null}
d -t 1.551464 -s 4 -d 11 -p ack -e 40 -c 1 -i 18 -a 1 -x {7.0 1.0 4 ------- null}
+ -t 1.572736 -s 3 -d 11 -p tcp -e 1500 -c 2 -i 16 -a 2 -x {2.0 8.0 4 ------- null}
- -t 1.572736 -s 3 -d 11 -p tcp -e 1500 -c 2 -i 16 -a 2 -x {2.0 8.0 4 ------- null}
h -t 1.572736 -s 3 -d 11 -p tcp -e 1500 -c 2 -i 16 -a 2 -x {2.0 8.0 -1 ------- null}
d -t 1.57274 -s 10 -d 11 -p tcp -e 1500 -c 2 -i 16 -a 2 -x {2.0 8.0 4 ------- null}
d -t 1.57274 -s 9 -d 11 -p tcp -e 1500 -c 2 -i 16 -a 2 -x {2.0 8.0 4 ------- null}
d -t 1.57274 -s 7 -d 11 -p tcp -e 1500 -c 2 -i 16 -a 2 -x {2.0 8.0 4 ------- null}
d -t 1.57274 -s 6 -d 11 -p tcp -e 1500 -c 2 -i 16 -a 2 -x {2.0 8.0 4 ------- null}
d -t 1.57274 -s 5 -d 11 -p tcp -e 1500 -c 2 -i 16 -a 2 -x {2.0 8.0 4 ------- null}
d -t 1.57274 -s 4 -d 11 -p tcp -e 1500 -c 2 -i 16 -a 2 -x {2.0 8.0 4 ------- null}
r -t 1.57474 -s 11 -d 8 -p tcp -e 1500 -c 2 -i 14 -a 2 -x {2.0 8.0 2 ------- null}
h -t 1.57474 -s 8 -d 11 -p ack -e 40 -c 2 -i 21 -a 2 -x {8.0 2.0 2 ------- null}
+ -t 1.5761 -s 7 -d 11 -p ack -e 40 -c 1 -i 19 -a 1 -x {7.0 1.0 5 ------- null}
- -t 1.5761 -s 7 -d 11 -p ack -e 40 -c 1 -i 19 -a 1 -x {7.0 1.0 5 ------- null}
h -t 1.5761 -s 7 -d 11 -p ack -e 40 -c 1 -i 19 -a 1 -x {7.0 1.0 -1 ------- null}
d -t 1.576104 -s 10 -d 11 -p ack -e 40 -c 1 -i 19 -a 1 -x {7.0 1.0 5 ------- null}
d -t 1.576104 -s 9 -d 11 -p ack -e 40 -c 1 -i 19 -a 1 -x {7.0 1.0 5 ------- null}