+ 0.02 0 2 ping 64 ------- 1 0.0 4.0 -1 0
- 0.02 0 2 ping 64 ------- 1 0.0 4.0 -1 0
+ 0.02 1 2 ping 64 ------- 2 1.0 5.0 -1 1
- 0.02 1 2 ping 64 ------- 2 1.0 5.0 -1 1
+ 0.03 0 2 ping 64 ------- 1 0.0 4.0 -1 2
- 0.03 0 2 ping 64 ------- 1 0.0 4.0 -1 2
+ 0.03 1 2 ping 64 ------- 2 1.0 5.0 -1 3
- 0.03 1 2 ping 64 ------- 2 1.0 5.0 -1 3
+ 0.04 0 2 ping 64 ------- 1 0.0 4.0 -1 4
- 0.04 0 2 ping 64 ------- 1 0.0 4.0 -1 4
+ 0.04 1 2 ping 64 ------- 2 1.0 5.0 -1 5
- 0.04 1 2 ping 64 ------- 2 1.0 5.0 -1 5
+ 0.05 0 2 ping 64 ------- 1 0.0 4.0 -1 6
- 0.05 0 2 ping 64 ------- 1 0.0 4.0 -1 6
+ 0.05 1 2 ping 64 ------- 2 1.0 5.0 -1 7
- 0.05 1 2 ping 64 ------- 2 1.0 5.0 -1 7
+ 0.06 0 2 ping 64 ------- 1 0.0 4.0 -1 8
- 0.06 0 2 ping 64 ------- 1 0.0 4.0 -1 8
+ 0.06 1 2 ping 64 ------- 2 1.0 5.0 -1 9
- 0.06 1 2 ping 64 ------- 2 1.0 5.0 -1 9
+ 0.07 0 2 ping 64 ------- 1 0.0 4.0 -1 10
- 0.07 0 2 ping 64 ------- 1 0.0 4.0 -1 10
+ 0.07 1 2 ping 64 ------- 2 1.0 5.0 -1 11
- 0.07 1 2 ping 64 ------- 2 1.0 5.0 -1 11
+ 0.08 0 2 ping 64 ------- 1 0.0 4.0 -1 12
- 0.08 0 2 ping 64 ------- 1 0.0 4.0 -1 12
+ 0.08 1 2 ping 64 ------- 2 1.0 5.0 -1 13
- 0.08 1 2 ping 64 ------- 2 1.0 5.0 -1 13
r 0.080512 0 2 ping 64 ------- 1 0.0 4.0 -1 0
+ 0.080512 2 3 ping 64 ------- 1 0.0 4.0 -1 0
- 0.080512 2 3 ping 64 ------- 1 0.0 4.0 -1 0
r 0.080512 1 2 ping 64 ------- 2 1.0 5.0 -1 1
+ 0.080512 2 3 ping 64 ------- 2 1.0 5.0 -1 1
- 0.085632 2 3 ping 64 ------- 2 1.0 5.0 -1 1
+ 0.09 0 2 ping 64 ------- 1 0.0 4.0 -1 14
- 0.09 0 2 ping 64 ------- 1 0.0 4.0 -1 14
+ 0.09 1 2 ping 64 ------- 2 1.0 5.0 -1 15
- 0.09 1 2 ping 64 ------- 2 1.0 5.0 -1 15
r 0.090512 0 2 ping 64 ------- 1 0.0 4.0 -1 2
+ 0.090512 2 3 ping 64 ------- 1 0.0 4.0 -1 2
r 0.090512 1 2 ping 64 ------- 2 1.0 5.0 -1 3
+ 0.090512 2 3 ping 64 ------- 2 1.0 5.0 -1 3
d 0.090512 2 3 ping 64 ------- 2 1.0 5.0 -1 3
- 0.090752 2 3 ping 64 ------- 1 0.0 4.0 -1 2
+ 0.1 0 2 ping 64 ------- 1 0.0 4.0 -1 16
- 0.1 0 2 ping 64 ------- 1 0.0 4.0 -1 16
+ 0.1 1 2 ping 64 ------- 2 1.0 5.0 -1 17
- 0.1 1 2 ping 64 ------- 2 1.0 5.0 -1 17
r 0.100512 0 2 ping 64 ------- 1 0.0 4.0 -1 4
+ 0.100512 2 3 ping 64 ------- 1 0.0 4.0 -1 4
- 0.100512 2 3 ping 64 ------- 1 0.0 4.0 -1 4
r 0.100512 1 2 ping 64 ------- 2 1.0 5.0 -1 5
+ 0.100512 2 3 ping 64 ------- 2 1.0 5.0 -1 5
- 0.105632 2 3 ping 64 ------- 2 1.0 5.0 -1 5
+ 0.11 0 2 ping 64 ------- 1 0.0 4.0 -1 18
- 0.11 0 2 ping 64 ------- 1 0.0 4.0 -1 18
+ 0.11 1 2 ping 64 ------- 2 1.0 5.0 -1 19
- 0.11 1 2 ping 64 ------- 2 1.0 5.0 -1 19
r 0.110512 0 2 ping 64 ------- 1 0.0 4.0 -1 6
+ 0.110512 2 3 ping 64 ------- 1 0.0 4.0 -1 6
r 0.110512 1 2 ping 64 ------- 2 1.0 5.0 -1 7
+ 0.110512 2 3 ping 64 ------- 2 1.0 5.0 -1 7
d 0.110512 2 3 ping 64 ------- 2 1.0 5.0 -1 7
- 0.110752 2 3 ping 64 ------- 1 0.0 4.0 -1 6
+ 0.12 0 2 ping 64 ------- 1 0.0 4.0 -1 20
- 0.12 0 2 ping 64 ------- 1 0.0 4.0 -1 20
+ 0.12 1 2 ping 64 ------- 2 1.0 5.0 -1 21
- 0.12 1 2 ping 64 ------- 2 1.0 5.0 -1 21
r 0.120512 0 2 ping 64 ------- 1 0.0 4.0 -1 8
+ 0.120512 2 3 ping 64 ------- 1 0.0 4.0 -1 8
- 0.120512 2 3 ping 64 ------- 1 0.0 4.0 -1 8
r 0.120512 1 2 ping 64 ------- 2 1.0 5.0 -1 9
+ 0.120512 2 3 ping 64 ------- 2 1.0 5.0 -1 9
- 0.125632 2 3 ping 64 ------- 2 1.0 5.0 -1 9
+ 0.13 0 2 ping 64 ------- 1 0.0 4.0 -1 22
- 0.13 0 2 ping 64 ------- 1 0.0 4.0 -1 22
+ 0.13 1 2 ping 64 ------- 2 1.0 5.0 -1 23
- 0.13 1 2 ping 64 ------- 2 1.0 5.0 -1 23
r 0.130512 0 2 ping 64 ------- 1 0.0 4.0 -1 10
+ 0.130512 2 3 ping 64 ------- 1 0.0 4.0 -1 10
r 0.130512 1 2 ping 64 ------- 2 1.0 5.0 -1 11
+ 0.130512 2 3 ping 64 ------- 2 1.0 5.0 -1 11
d 0.130512 2 3 ping 64 ------- 2 1.0 5.0 -1 11
- 0.130752 2 3 ping 64 ------- 1 0.0 4.0 -1 10
+ 0.14 0 2 ping 64 ------- 1 0.0 4.0 -1 24
- 0.14 0 2 ping 64 ------- 1 0.0 4.0 -1 24
+ 0.14 1 2 ping 64 ------- 2 1.0 5.0 -1 25
- 0.14 1 2 ping 64 ------- 2 1.0 5.0 -1 25
r 0.140512 0 2 ping 64 ------- 1 0.0 4.0 -1 12
+ 0.140512 2 3 ping 64 ------- 1 0.0 4.0 -1 12
- 0.140512 2 3 ping 64 ------- 1 0.0 4.0 -1 12
r 0.140512 1 2 ping 64 ------- 2 1.0 5.0 -1 13
+ 0.140512 2 3 ping 64 ------- 2 1.0 5.0 -1 13
r 0.145632 2 3 ping 64 ------- 1 0.0 4.0 -1 0
+ 0.145632 3 4 ping 64 ------- 1 0.0 4.0 -1 0
- 0.145632 3 4 ping 64 ------- 1 0.0 4.0 -1 0
- 0.145632 2 3 ping 64 ------- 2 1.0 5.0 -1 13
+ 0.15 0 2 ping 64 ------- 1 0.0 4.0 -1 26
- 0.15 0 2 ping 64 ------- 1 0.0 4.0 -1 26
+ 0.15 1 2 ping 64 ------- 2 1.0 5.0 -1 27
- 0.15 1 2 ping 64 ------- 2 1.0 5.0 -1 27
r 0.150512 0 2 ping 64 ------- 1 0.0 4.0 -1 14
+ 0.150512 2 3 ping 64 ------- 1 0.0 4.0 -1 14
r 0.150512 1 2 ping 64 ------- 2 1.0 5.0 -1 15
+ 0.150512 2 3 ping 64 ------- 2 1.0 5.0 -1 15
d 0.150512 2 3 ping 64 ------- 2 1.0 5.0 -1 15
r 0.150752 2 3 ping 64 ------- 2 1.0 5.0 -1 1
+ 0.150752 3 5 ping 64 ------- 2 1.0 5.0 -1 1
- 0.150752 3 5 ping 64 ------- 2 1.0 5.0 -1 1
- 0.150752 2 3 ping 64 ------- 1 0.0 4.0 -1 14
r 0.155872 2 3 ping 64 ------- 1 0.0 4.0 -1 2
+ 0.155872 3 4 ping 64 ------- 1 0.0 4.0 -1 2
- 0.155872 3 4 ping 64 ------- 1 0.0 4.0 -1 2
+ 0.16 0 2 ping 64 ------- 1 0.0 4.0 -1 28
- 0.16 0 2 ping 64 ------- 1 0.0 4.0 -1 28
+ 0.16 1 2 ping 64 ------- 2 1.0 5.0 -1 29
- 0.16 1 2 ping 64 ------- 2 1.0 5.0 -1 29
r 0.160512 0 2 ping 64 ------- 1 0.0 4.0 -1 16
+ 0.160512 2 3 ping 64 ------- 1 0.0 4.0 -1 16
- 0.160512 2 3 ping 64 ------- 1 0.0 4.0 -1 16
r 0.160512 1 2 ping 64 ------- 2 1.0 5.0 -1 17
+ 0.160512 2 3 ping 64 ------- 2 1.0 5.0 -1 17
r 0.165632 2 3 ping 64 ------- 1 0.0 4.0 -1 4
+ 0.165632 3 4 ping 64 ------- 1 0.0 4.0 -1 4
- 0.165632 3 4 ping 64 ------- 1 0.0 4.0 -1 4
- 0.165632 2 3 ping 64 ------- 2 1.0 5.0 -1 17
+ 0.17 0 2 ping 64 ------- 1 0.0 4.0 -1 30
- 0.17 0 2 ping 64 ------- 1 0.0 4.0 -1 30
+ 0.17 1 2 ping 64 ------- 2 1.0 5.0 -1 31
- 0.17 1 2 ping 64 ------- 2 1.0 5.0 -1 31
r 0.170512 0 2 ping 64 ------- 1 0.0 4.0 -1 18
+ 0.170512 2 3 ping 64 ------- 1 0.0 4.0 -1 18
r 0.170512 1 2 ping 64 ------- 2 1.0 5.0 -1 19
+ 0.170512 2 3 ping 64 ------- 2 1.0 5.0 -1 19
d 0.170512 2 3 ping 64 ------- 2 1.0 5.0 -1 19
r 0.170752 2 3 ping 64 ------- 2 1.0 5.0 -1 5
+ 0.170752 3 5 ping 64 ------- 2 1.0 5.0 -1 5
- 0.170752 3 5 ping 64 ------- 2 1.0 5.0 -1 5
- 0.170752 2 3 ping 64 ------- 1 0.0 4.0 -1 18
r 0.175872 2 3 ping 64 ------- 1 0.0 4.0 -1 6
+ 0.175872 3 4 ping 64 ------- 1 0.0 4.0 -1 6
- 0.175872 3 4 ping 64 ------- 1 0.0 4.0 -1 6
+ 0.18 0 2 ping 64 ------- 1 0.0 4.0 -1 32
- 0.18 0 2 ping 64 ------- 1 0.0 4.0 -1 32
+ 0.18 1 2 ping 64 ------- 2 1.0 5.0 -1 33
- 0.18 1 2 ping 64 ------- 2 1.0 5.0 -1 33
r 0.180512 0 2 ping 64 ------- 1 0.0 4.0 -1 20
+ 0.180512 2 3 ping 64 ------- 1 0.0 4.0 -1 20
- 0.180512 2 3 ping 64 ------- 1 0.0 4.0 -1 20
r 0.180512 1 2 ping 64 ------- 2 1.0 5.0 -1 21
+ 0.180512 2 3 ping 64 ------- 2 1.0 5.0 -1 21
- 0.185632 2 3 ping 64 ------- 2 1.0 5.0 -1 21
r 0.185632 2 3 ping 64 ------- 1 0.0 4.0 -1 8
+ 0.185632 3 4 ping 64 ------- 1 0.0 4.0 -1 8
- 0.185632 3 4 ping 64 ------- 1 0.0 4.0 -1 8
+ 0.19 0 2 ping 64 ------- 1 0.0 4.0 -1 34
- 0.19 0 2 ping 64 ------- 1 0.0 4.0 -1 34
+ 0.19 1 2 ping 64 ------- 2 1.0 5.0 -1 35
- 0.19 1 2 ping 64 ------- 2 1.0 5.0 -1 35
r 0.190512 0 2 ping 64 ------- 1 0.0 4.0 -1 22
+ 0.190512 2 3 ping 64 ------- 1 0.0 4.0 -1 22
r 0.190512 1 2 ping 64 ------- 2 1.0 5.0 -1 23
+ 0.190512 2 3 ping 64 ------- 2 1.0 5.0 -1 23
d 0.190512 2 3 ping 64 ------- 2 1.0 5.0 -1 23
- 0.190752 2 3 ping 64 ------- 1 0.0 4.0 -1 22
r 0.190752 2 3 ping 64 ------- 2 1.0 5.0 -1 9
+ 0.190752 3 5 ping 64 ------- 2 1.0 5.0 -1 9
- 0.190752 3 5 ping 64 ------- 2 1.0 5.0 -1 9
r 0.195872 2 3 ping 64 ------- 1 0.0 4.0 -1 10
+ 0.195872 3 4 ping 64 ------- 1 0.0 4.0 -1 10
- 0.195872 3 4 ping 64 ------- 1 0.0 4.0 -1 10
+ 0.2 0 2 ping 64 ------- 1 0.0 4.0 -1 36
- 0.2 0 2 ping 64 ------- 1 0.0 4.0 -1 36
+ 0.2 1 2 ping 64 ------- 2 1.0 5.0 -1 37
- 0.2 1 2 ping 64 ------- 2 1.0 5.0 -1 37
r 0.200512 0 2 ping 64 ------- 1 0.0 4.0 -1 24
+ 0.200512 2 3 ping 64 ------- 1 0.0 4.0 -1 24
- 0.200512 2 3 ping 64 ------- 1 0.0 4.0 -1 24
r 0.200512 1 2 ping 64 ------- 2 1.0 5.0 -1 25
+ 0.200512 2 3 ping 64 ------- 2 1.0 5.0 -1 25
r 0.205632 2 3 ping 64 ------- 1 0.0 4.0 -1 12
+ 0.205632 3 4 ping 64 ------- 1 0.0 4.0 -1 12
- 0.205632 3 4 ping 64 ------- 1 0.0 4.0 -1 12
- 0.205632 2 3 ping 64 ------- 2 1.0 5.0 -1 25
r 0.206144 3 4 ping 64 ------- 1 0.0 4.0 -1 0
+ 0.206144 4 3 ping 64 ------- 3 4.0 0.0 -1 38
- 0.206144 4 3 ping 64 ------- 3 4.0 0.0 -1 38
+ 0.21 0 2 ping 64 ------- 1 0.0 4.0 -1 39
- 0.21 0 2 ping 64 ------- 1 0.0 4.0 -1 39
+ 0.21 1 2 ping 64 ------- 2 1.0 5.0 -1 40
- 0.21 1 2 ping 64 ------- 2 1.0 5.0 -1 40
r 0.210512 0 2 ping 64 ------- 1 0.0 4.0 -1 26
+ 0.210512 2 3 ping 64 ------- 1 0.0 4.0 -1 26
r 0.210512 1 2 ping 64 ------- 2 1.0 5.0 -1 27
+ 0.210512 2 3 ping 64 ------- 2 1.0 5.0 -1 27
d 0.210512 2 3 ping 64 ------- 2 1.0 5.0 -1 27
r 0.210752 2 3 ping 64 ------- 2 1.0 5.0 -1 13
+ 0.210752 3 5 ping 64 ------- 2 1.0 5.0 -1 13
- 0.210752 3 5 ping 64 ------- 2 1.0 5.0 -1 13
- 0.210752 2 3 ping 64 ------- 1 0.0 4.0 -1 26
r 0.211776 3 5 ping 64 ------- 2 1.0 5.0 -1 1
+ 0.211776 5 3 ping 64 ------- 4 5.0 1.0 -1 41
- 0.211776 5 3 ping 64 ------- 4 5.0 1.0 -1 41
r 0.215872 2 3 ping 64 ------- 1 0.0 4.0 -1 14
+ 0.215872 3 4 ping 64 ------- 1 0.0 4.0 -1 14
- 0.215872 3 4 ping 64 ------- 1 0.0 4.0 -1 14
r 0.216384 3 4 ping 64 ------- 1 0.0 4.0 -1 2
+ 0.216384 4 3 ping 64 ------- 3 4.0 0.0 -1 42
- 0.216384 4 3 ping 64 ------- 3 4.0 0.0 -1 42
+ 0.22 0 2 ping 64 ------- 1 0.0 4.0 -1 43
- 0.22 0 2 ping 64 ------- 1 0.0 4.0 -1 43
+ 0.22 1 2 ping 64 ------- 2 1.0 5.0 -1 44
- 0.22 1 2 ping 64 ------- 2 1.0 5.0 -1 44
r 0.220512 0 2 ping 64 ------- 1 0.0 4.0 -1 28
+ 0.220512 2 3 ping 64 ------- 1 0.0 4.0 -1 28
- 0.220512 2 3 ping 64 ------- 1 0.0 4.0 -1 28
r 0.220512 1 2 ping 64 ------- 2 1.0 5.0 -1 29
+ 0.220512 2 3 ping 64 ------- 2 1.0 5.0 -1 29
r 0.225632 2 3 ping 64 ------- 1 0.0 4.0 -1 16
+ 0.225632 3 4 ping 64 ------- 1 0.0 4.0 -1 16
- 0.225632 3 4 ping 64 ------- 1 0.0 4.0 -1 16
- 0.225632 2 3 ping 64 ------- 2 1.0 5.0 -1 29
r 0.226144 3 4 ping 64 ------- 1 0.0 4.0 -1 4
+ 0.226144 4 3 ping 64 ------- 3 4.0 0.0 -1 45
- 0.226144 4 3 ping 64 ------- 3 4.0 0.0 -1 45
+ 0.23 0 2 ping 64 ------- 1 0.0 4.0 -1 46
- 0.23 0 2 ping 64 ------- 1 0.0 4.0 -1 46
+ 0.23 1 2 ping 64 ------- 2 1.0 5.0 -1 47
- 0.23 1 2 ping 64 ------- 2 1.0 5.0 -1 47
r 0.230512 0 2 ping 64 ------- 1 0.0 4.0 -1 30
+ 0.230512 2 3 ping 64 ------- 1 0.0 4.0 -1 30
r 0.230512 1 2 ping 64 ------- 2 1.0 5.0 -1 31
+ 0.230512 2 3 ping 64 ------- 2 1.0 5.0 -1 31
d 0.230512 2 3 ping 64 ------- 2 1.0 5.0 -1 31
r 0.230752 2 3 ping 64 ------- 2 1.0 5.0 -1 17
+ 0.230752 3 5 ping 64 ------- 2 1.0 5.0 -1 17
- 0.230752 3 5 ping 64 ------- 2 1.0 5.0 -1 17
- 0.230752 2 3 ping 64 ------- 1 0.0 4.0 -1 30
r 0.231776 3 5 ping 64 ------- 2 1.0 5.0 -1 5
+ 0.231776 5 3 ping 64 ------- 4 5.0 1.0 -1 48
- 0.231776 5 3 ping 64 ------- 4 5.0 1.0 -1 48
r 0.235872 2 3 ping 64 ------- 1 0.0 4.0 -1 18
+ 0.235872 3 4 ping 64 ------- 1 0.0 4.0 -1 18
- 0.235872 3 4 ping 64 ------- 1 0.0 4.0 -1 18
r 0.236384 3 4 ping 64 ------- 1 0.0 4.0 -1 6
+ 0.236384 4 3 ping 64 ------- 3 4.0 0.0 -1 49
- 0.236384 4 3 ping 64 ------- 3 4.0 0.0 -1 49
+ 0.24 0 2 ping 64 ------- 1 0.0 4.0 -1 50
- 0.24 0 2 ping 64 ------- 1 0.0 4.0 -1 50
+ 0.24 1 2 ping 64 ------- 2 1.0 5.0 -1 51
- 0.24 1 2 ping 64 ------- 2 1.0 5.0 -1 51
r 0.240512 0 2 ping 64 ------- 1 0.0 4.0 -1 32
+ 0.240512 2 3 ping 64 ------- 1 0.0 4.0 -1 32
- 0.240512 2 3 ping 64 ------- 1 0.0 4.0 -1 32
r 0.240512 1 2 ping 64 ------- 2 1.0 5.0 -1 33
+ 0.240512 2 3 ping 64 ------- 2 1.0 5.0 -1 33
r 0.245632 2 3 ping 64 ------- 1 0.0 4.0 -1 20
+ 0.245632 3 4 ping 64 ------- 1 0.0 4.0 -1 20
- 0.245632 3 4 ping 64 ------- 1 0.0 4.0 -1 20
- 0.245632 2 3 ping 64 ------- 2 1.0 5.0 -1 33
r 0.246144 3 4 ping 64 ------- 1 0.0 4.0 -1 8
+ 0.246144 4 3 ping 64 ------- 3 4.0 0.0 -1 52
- 0.246144 4 3 ping 64 ------- 3 4.0 0.0 -1 52
+ 0.25 0 2 ping 64 ------- 1 0.0 4.0 -1 53
- 0.25 0 2 ping 64 ------- 1 0.0 4.0 -1 53
+ 0.25 1 2 ping 64 ------- 2 1.0 5.0 -1 54
- 0.25 1 2 ping 64 ------- 2 1.0 5.0 -1 54
r 0.250512 0 2 ping 64 ------- 1 0.0 4.0 -1 34
+ 0.250512 2 3 ping 64 ------- 1 0.0 4.0 -1 34
r 0.250512 1 2 ping 64 ------- 2 1.0 5.0 -1 35
+ 0.250512 2 3 ping 64 ------- 2 1.0 5.0 -1 35
d 0.250512 2 3 ping 64 ------- 2 1.0 5.0 -1 35
r 0.250752 2 3 ping 64 ------- 2 1.0 5.0 -1 21
+ 0.250752 3 5 ping 64 ------- 2 1.0 5.0 -1 21
- 0.250752 3 5 ping 64 ------- 2 1.0 5.0 -1 21
- 0.250752 2 3 ping 64 ------- 1 0.0 4.0 -1 34
r 0.251776 3 5 ping 64 ------- 2 1.0 5.0 -1 9
+ 0.251776 5 3 ping 64 ------- 4 5.0 1.0 -1 55
- 0.251776 5 3 ping 64 ------- 4 5.0 1.0 -1 55
r 0.255872 2 3 ping 64 ------- 1 0.0 4.0 -1 22
+ 0.255872 3 4 ping 64 ------- 1 0.0 4.0 -1 22
- 0.255872 3 4 ping 64 ------- 1 0.0 4.0 -1 22
r 0.256384 3 4 ping 64 ------- 1 0.0 4.0 -1 10
+ 0.256384 4 3 ping 64 ------- 3 4.0 0.0 -1 56
- 0.256384 4 3 ping 64 ------- 3 4.0 0.0 -1 56
+ 0.26 0 2 ping 64 ------- 1 0.0 4.0 -1 57
- 0.26 0 2 ping 64 ------- 1 0.0 4.0 -1 57
+ 0.26 1 2 ping 64 ------- 2 1.0 5.0 -1 58
- 0.26 1 2 ping 64 ------- 2 1.0 5.0 -1 58
r 0.260512 0 2 ping 64 ------- 1 0.0 4.0 -1 36
+ 0.260512 2 3 ping 64 ------- 1 0.0 4.0 -1 36
- 0.260512 2 3 ping 64 ------- 1 0.0 4.0 -1 36
r 0.260512 1 2 ping 64 ------- 2 1.0 5.0 -1 37
+ 0.260512 2 3 ping 64 ------- 2 1.0 5.0 -1 37
r 0.265632 2 3 ping 64 ------- 1 0.0 4.0 -1 24
+ 0.265632 3 4 ping 64 ------- 1 0.0 4.0 -1 24
- 0.265632 3 4 ping 64 ------- 1 0.0 4.0 -1 24
- 0.265632 2 3 ping 64 ------- 2 1.0 5.0 -1 37
r 0.266144 3 4 ping 64 ------- 1 0.0 4.0 -1 12
+ 0.266144 4 3 ping 64 ------- 3 4.0 0.0 -1 59
- 0.266144 4 3 ping 64 ------- 3 4.0 0.0 -1 59
r 0.266656 4 3 ping 64 ------- 3 4.0 0.0 -1 38
+ 0.266656 3 2 ping 64 ------- 3 4.0 0.0 -1 38
- 0.266656 3 2 ping 64 ------- 3 4.0 0.0 -1 38
+ 0.27 0 2 ping 64 ------- 1 0.0 4.0 -1 60
- 0.27 0 2 ping 64 ------- 1 0.0 4.0 -1 60
+ 0.27 1 2 ping 64 ------- 2 1.0 5.0 -1 61
- 0.27 1 2 ping 64 ------- 2 1.0 5.0 -1 61
r 0.270512 0 2 ping 64 ------- 1 0.0 4.0 -1 39
+ 0.270512 2 3 ping 64 ------- 1 0.0 4.0 -1 39
r 0.270512 1 2 ping 64 ------- 2 1.0 5.0 -1 40
+ 0.270512 2 3 ping 64 ------- 2 1.0 5.0 -1 40
d 0.270512 2 3 ping 64 ------- 2 1.0 5.0 -1 40
r 0.270752 2 3 ping 64 ------- 2 1.0 5.0 -1 25
+ 0.270752 3 5 ping 64 ------- 2 1.0 5.0 -1 25
- 0.270752 3 5 ping 64 ------- 2 1.0 5.0 -1 25
- 0.270752 2 3 ping 64 ------- 1 0.0 4.0 -1 39
r 0.271776 3 5 ping 64 ------- 2 1.0 5.0 -1 13
+ 0.271776 5 3 ping 64 ------- 4 5.0 1.0 -1 62
- 0.271776 5 3 ping 64 ------- 4 5.0 1.0 -1 62
r 0.2728 5 3 ping 64 ------- 4 5.0 1.0 -1 41
+ 0.2728 3 2 ping 64 ------- 4 5.0 1.0 -1 41
- 0.2728 3 2 ping 64 ------- 4 5.0 1.0 -1 41
r 0.275872 2 3 ping 64 ------- 1 0.0 4.0 -1 26
+ 0.275872 3 4 ping 64 ------- 1 0.0 4.0 -1 26
- 0.275872 3 4 ping 64 ------- 1 0.0 4.0 -1 26
r 0.276384 3 4 ping 64 ------- 1 0.0 4.0 -1 14
+ 0.276384 4 3 ping 64 ------- 3 4.0 0.0 -1 63
- 0.276384 4 3 ping 64 ------- 3 4.0 0.0 -1 63
r 0.276896 4 3 ping 64 ------- 3 4.0 0.0 -1 42
+ 0.276896 3 2 ping 64 ------- 3 4.0 0.0 -1 42
- 0.27792 3 2 ping 64 ------- 3 4.0 0.0 -1 42
+ 0.28 0 2 ping 64 ------- 1 0.0 4.0 -1 64
- 0.28 0 2 ping 64 ------- 1 0.0 4.0 -1 64
+ 0.28 1 2 ping 64 ------- 2 1.0 5.0 -1 65
- 0.28 1 2 ping 64 ------- 2 1.0 5.0 -1 65
r 0.280512 0 2 ping 64 ------- 1 0.0 4.0 -1 43
+ 0.280512 2 3 ping 64 ------- 1 0.0 4.0 -1 43
- 0.280512 2 3 ping 64 ------- 1 0.0 4.0 -1 43
r 0.280512 1 2 ping 64 ------- 2 1.0 5.0 -1 44
+ 0.280512 2 3 ping 64 ------- 2 1.0 5.0 -1 44
r 0.285632 2 3 ping 64 ------- 1 0.0 4.0 -1 28
+ 0.285632 3 4 ping 64 ------- 1 0.0 4.0 -1 28
- 0.285632 3 4 ping 64 ------- 1 0.0 4.0 -1 28
- 0.285632 2 3 ping 64 ------- 2 1.0 5.0 -1 44
r 0.286144 3 4 ping 64 ------- 1 0.0 4.0 -1 16
+ 0.286144 4 3 ping 64 ------- 3 4.0 0.0 -1 66
- 0.286144 4 3 ping 64 ------- 3 4.0 0.0 -1 66
r 0.286656 4 3 ping 64 ------- 3 4.0 0.0 -1 45
+ 0.286656 3 2 ping 64 ------- 3 4.0 0.0 -1 45
- 0.286656 3 2 ping 64 ------- 3 4.0 0.0 -1 45
+ 0.29 0 2 ping 64 ------- 1 0.0 4.0 -1 67
- 0.29 0 2 ping 64 ------- 1 0.0 4.0 -1 67
+ 0.29 1 2 ping 64 ------- 2 1.0 5.0 -1 68
- 0.29 1 2 ping 64 ------- 2 1.0 5.0 -1 68
r 0.290512 0 2 ping 64 ------- 1 0.0 4.0 -1 46
+ 0.290512 2 3 ping 64 ------- 1 0.0 4.0 -1 46
r 0.290512 1 2 ping 64 ------- 2 1.0 5.0 -1 47
+ 0.290512 2 3 ping 64 ------- 2 1.0 5.0 -1 47
d 0.290512 2 3 ping 64 ------- 2 1.0 5.0 -1 47
r 0.290752 2 3 ping 64 ------- 2 1.0 5.0 -1 29
+ 0.290752 3 5 ping 64 ------- 2 1.0 5.0 -1 29
- 0.290752 3 5 ping 64 ------- 2 1.0 5.0 -1 29
- 0.290752 2 3 ping 64 ------- 1 0.0 4.0 -1 46
r 0.291776 3 5 ping 64 ------- 2 1.0 5.0 -1 17
+ 0.291776 5 3 ping 64 ------- 4 5.0 1.0 -1 69
- 0.291776 5 3 ping 64 ------- 4 5.0 1.0 -1 69
r 0.2928 5 3 ping 64 ------- 4 5.0 1.0 -1 48
+ 0.2928 3 2 ping 64 ------- 4 5.0 1.0 -1 48
- 0.2928 3 2 ping 64 ------- 4 5.0 1.0 -1 48
r 0.295872 2 3 ping 64 ------- 1 0.0 4.0 -1 30
+ 0.295872 3 4 ping 64 ------- 1 0.0 4.0 -1 30
- 0.295872 3 4 ping 64 ------- 1 0.0 4.0 -1 30
r 0.296384 3 4 ping 64 ------- 1 0.0 4.0 -1 18
+ 0.296384 4 3 ping 64 ------- 3 4.0 0.0 -1 70
- 0.296384 4 3 ping 64 ------- 3 4.0 0.0 -1 70
r 0.296896 4 3 ping 64 ------- 3 4.0 0.0 -1 49
+ 0.296896 3 2 ping 64 ------- 3 4.0 0.0 -1 49
- 0.29792 3 2 ping 64 ------- 3 4.0 0.0 -1 49
+ 0.3 0 2 ping 64 ------- 1 0.0 4.0 -1 71
- 0.3 0 2 ping 64 ------- 1 0.0 4.0 -1 71
+ 0.3 1 2 ping 64 ------- 2 1.0 5.0 -1 72
- 0.3 1 2 ping 64 ------- 2 1.0 5.0 -1 72
r 0.300512 0 2 ping 64 ------- 1 0.0 4.0 -1 50
+ 0.300512 2 3 ping 64 ------- 1 0.0 4.0 -1 50
- 0.300512 2 3 ping 64 ------- 1 0.0 4.0 -1 50
r 0.300512 1 2 ping 64 ------- 2 1.0 5.0 -1 51
+ 0.300512 2 3 ping 64 ------- 2 1.0 5.0 -1 51
r 0.305632 2 3 ping 64 ------- 1 0.0 4.0 -1 32
+ 0.305632 3 4 ping 64 ------- 1 0.0 4.0 -1 32
- 0.305632 3 4 ping 64 ------- 1 0.0 4.0 -1 32
- 0.305632 2 3 ping 64 ------- 2 1.0 5.0 -1 51
r 0.306144 3 4 ping 64 ------- 1 0.0 4.0 -1 20
+ 0.306144 4 3 ping 64 ------- 3 4.0 0.0 -1 73
- 0.306144 4 3 ping 64 ------- 3 4.0 0.0 -1 73
r 0.306656 4 3 ping 64 ------- 3 4.0 0.0 -1 52
+ 0.306656 3 2 ping 64 ------- 3 4.0 0.0 -1 52
- 0.306656 3 2 ping 64 ------- 3 4.0 0.0 -1 52
+ 0.31 0 2 ping 64 ------- 1 0.0 4.0 -1 74
- 0.31 0 2 ping 64 ------- 1 0.0 4.0 -1 74
+ 0.31 1 2 ping 64 ------- 2 1.0 5.0 -1 75
- 0.31 1 2 ping 64 ------- 2 1.0 5.0 -1 75
r 0.310512 0 2 ping 64 ------- 1 0.0 4.0 -1 53
+ 0.310512 2 3 ping 64 ------- 1 0.0 4.0 -1 53
r 0.310512 1 2 ping 64 ------- 2 1.0 5.0 -1 54
+ 0.310512 2 3 ping 64 ------- 2 1.0 5.0 -1 54
d 0.310512 2 3 ping 64 ------- 2 1.0 5.0 -1 54
r 0.310752 2 3 ping 64 ------- 2 1.0 5.0 -1 33
+ 0.310752 3 5 ping 64 ------- 2 1.0 5.0 -1 33
- 0.310752 3 5 ping 64 ------- 2 1.0 5.0 -1 33
- 0.310752 2 3 ping 64 ------- 1 0.0 4.0 -1 53
r 0.311776 3 5 ping 64 ------- 2 1.0 5.0 -1 21
+ 0.311776 5 3 ping 64 ------- 4 5.0 1.0 -1 76
- 0.311776 5 3 ping 64 ------- 4 5.0 1.0 -1 76
r 0.3128 5 3 ping 64 ------- 4 5.0 1.0 -1 55
+ 0.3128 3 2 ping 64 ------- 4 5.0 1.0 -1 55
- 0.3128 3 2 ping 64 ------- 4 5.0 1.0 -1 55
r 0.315872 2 3 ping 64 ------- 1 0.0 4.0 -1 34
+ 0.315872 3 4 ping 64 ------- 1 0.0 4.0 -1 34
- 0.315872 3 4 ping 64 ------- 1 0.0 4.0 -1 34
r 0.316384 3 4 ping 64 ------- 1 0.0 4.0 -1 22
+ 0.316384 4 3 ping 64 ------- 3 4.0 0.0 -1 77
- 0.316384 4 3 ping 64 ------- 3 4.0 0.0 -1 77
r 0.316896 4 3 ping 64 ------- 3 4.0 0.0 -1 56
+ 0.316896 3 2 ping 64 ------- 3 4.0 0.0 -1 56
- 0.31792 3 2 ping 64 ------- 3 4.0 0.0 -1 56
+ 0.32 0 2 ping 64 ------- 1 0.0 4.0 -1 78
- 0.32 0 2 ping 64 ------- 1 0.0 4.0 -1 78
+ 0.32 1 2 ping 64 ------- 2 1.0 5.0 -1 79
- 0.32 1 2 ping 64 ------- 2 1.0 5.0 -1 79
r 0.320512 0 2 ping 64 ------- 1 0.0 4.0 -1 57
+ 0.320512 2 3 ping 64 ------- 1 0.0 4.0 -1 57
- 0.320512 2 3 ping 64 ------- 1 0.0 4.0 -1 57
r 0.320512 1 2 ping 64 ------- 2 1.0 5.0 -1 58
+ 0.320512 2 3 ping 64 ------- 2 1.0 5.0 -1 58
r 0.325632 2 3 ping 64 ------- 1 0.0 4.0 -1 36
+ 0.325632 3 4 ping 64 ------- 1 0.0 4.0 -1 36
- 0.325632 3 4 ping 64 ------- 1 0.0 4.0 -1 36
- 0.325632 2 3 ping 64 ------- 2 1.0 5.0 -1 58
r 0.326144 3 4 ping 64 ------- 1 0.0 4.0 -1 24
+ 0.326144 4 3 ping 64 ------- 3 4.0 0.0 -1 80
- 0.326144 4 3 ping 64 ------- 3 4.0 0.0 -1 80
r 0.326656 4 3 ping 64 ------- 3 4.0 0.0 -1 59
+ 0.326656 3 2 ping 64 ------- 3 4.0 0.0 -1 59
- 0.326656 3 2 ping 64 ------- 3 4.0 0.0 -1 59
+ 0.33 0 2 ping 64 ------- 1 0.0 4.0 -1 81
- 0.33 0 2 ping 64 ------- 1 0.0 4.0 -1 81
+ 0.33 1 2 ping 64 ------- 2 1.0 5.0 -1 82
- 0.33 1 2 ping 64 ------- 2 1.0 5.0 -1 82
r 0.330512 0 2 ping 64 ------- 1 0.0 4.0 -1 60
+ 0.330512 2 3 ping 64 ------- 1 0.0 4.0 -1 60
r 0.330512 1 2 ping 64 ------- 2 1.0 5.0 -1 61
+ 0.330512 2 3 ping 64 ------- 2 1.0 5.0 -1 61
d 0.330512 2 3 ping 64 ------- 2 1.0 5.0 -1 61
r 0.330752 2 3 ping 64 ------- 2 1.0 5.0 -1 37
+ 0.330752 3 5 ping 64 ------- 2 1.0 5.0 -1 37
- 0.330752 3 5 ping 64 ------- 2 1.0 5.0 -1 37
- 0.330752 2 3 ping 64 ------- 1 0.0 4.0 -1 60
r 0.331776 3 5 ping 64 ------- 2 1.0 5.0 -1 25
+ 0.331776 5 3 ping 64 ------- 4 5.0 1.0 -1 83
- 0.331776 5 3 ping 64 ------- 4 5.0 1.0 -1 83
r 0.331776 3 2 ping 64 ------- 3 4.0 0.0 -1 38
+ 0.331776 2 0 ping 64 ------- 3 4.0 0.0 -1 38
- 0.331776 2 0 ping 64 ------- 3 4.0 0.0 -1 38
r 0.3328 5 3 ping 64 ------- 4 5.0 1.0 -1 62
+ 0.3328 3 2 ping 64 ------- 4 5.0 1.0 -1 62
- 0.3328 3 2 ping 64 ------- 4 5.0 1.0 -1 62
r 0.335872 2 3 ping 64 ------- 1 0.0 4.0 -1 39
+ 0.335872 3 4 ping 64 ------- 1 0.0 4.0 -1 39
- 0.335872 3 4 ping 64 ------- 1 0.0 4.0 -1 39
r 0.336384 3 4 ping 64 ------- 1 0.0 4.0 -1 26
+ 0.336384 4 3 ping 64 ------- 3 4.0 0.0 -1 84
- 0.336384 4 3 ping 64 ------- 3 4.0 0.0 -1 84
r 0.336896 4 3 ping 64 ------- 3 4.0 0.0 -1 63
+ 0.336896 3 2 ping 64 ------- 3 4.0 0.0 -1 63
r 0.33792 3 2 ping 64 ------- 4 5.0 1.0 -1 41
+ 0.33792 2 1 ping 64 ------- 4 5.0 1.0 -1 41
- 0.33792 2 1 ping 64 ------- 4 5.0 1.0 -1 41
- 0.33792 3 2 ping 64 ------- 3 4.0 0.0 -1 63
+ 0.34 0 2 ping 64 ------- 1 0.0 4.0 -1 85
- 0.34 0 2 ping 64 ------- 1 0.0 4.0 -1 85
+ 0.34 1 2 ping 64 ------- 2 1.0 5.0 -1 86
- 0.34 1 2 ping 64 ------- 2 1.0 5.0 -1 86
r 0.340512 0 2 ping 64 ------- 1 0.0 4.0 -1 64
+ 0.340512 2 3 ping 64 ------- 1 0.0 4.0 -1 64
- 0.340512 2 3 ping 64 ------- 1 0.0 4.0 -1 64
r 0.340512 1 2 ping 64 ------- 2 1.0 5.0 -1 65
+ 0.340512 2 3 ping 64 ------- 2 1.0 5.0 -1 65
r 0.34304 3 2 ping 64 ------- 3 4.0 0.0 -1 42
+ 0.34304 2 0 ping 64 ------- 3 4.0 0.0 -1 42
- 0.34304 2 0 ping 64 ------- 3 4.0 0.0 -1 42
r 0.345632 2 3 ping 64 ------- 1 0.0 4.0 -1 43
+ 0.345632 3 4 ping 64 ------- 1 0.0 4.0 -1 43
- 0.345632 3 4 ping 64 ------- 1 0.0 4.0 -1 43
- 0.345632 2 3 ping 64 ------- 2 1.0 5.0 -1 65
r 0.346144 3 4 ping 64 ------- 1 0.0 4.0 -1 28
+ 0.346144 4 3 ping 64 ------- 3 4.0 0.0 -1 87
- 0.346144 4 3 ping 64 ------- 3 4.0 0.0 -1 87
r 0.346656 4 3 ping 64 ------- 3 4.0 0.0 -1 66
+ 0.346656 3 2 ping 64 ------- 3 4.0 0.0 -1 66
- 0.346656 3 2 ping 64 ------- 3 4.0 0.0 -1 66
+ 0.35 0 2 ping 64 ------- 1 0.0 4.0 -1 88
- 0.35 0 2 ping 64 ------- 1 0.0 4.0 -1 88
+ 0.35 1 2 ping 64 ------- 2 1.0 5.0 -1 89
- 0.35 1 2 ping 64 ------- 2 1.0 5.0 -1 89
r 0.350512 0 2 ping 64 ------- 1 0.0 4.0 -1 67
+ 0.350512 2 3 ping 64 ------- 1 0.0 4.0 -1 67
r 0.350512 1 2 ping 64 ------- 2 1.0 5.0 -1 68
+ 0.350512 2 3 ping 64 ------- 2 1.0 5.0 -1 68
d 0.350512 2 3 ping 64 ------- 2 1.0 5.0 -1 68
r 0.350752 2 3 ping 64 ------- 2 1.0 5.0 -1 44
+ 0.350752 3 5 ping 64 ------- 2 1.0 5.0 -1 44
- 0.350752 3 5 ping 64 ------- 2 1.0 5.0 -1 44
- 0.350752 2 3 ping 64 ------- 1 0.0 4.0 -1 67
r 0.351776 3 5 ping 64 ------- 2 1.0 5.0 -1 29
+ 0.351776 5 3 ping 64 ------- 4 5.0 1.0 -1 90
- 0.351776 5 3 ping 64 ------- 4 5.0 1.0 -1 90
r 0.351776 3 2 ping 64 ------- 3 4.0 0.0 -1 45
+ 0.351776 2 0 ping 64 ------- 3 4.0 0.0 -1 45
- 0.351776 2 0 ping 64 ------- 3 4.0 0.0 -1 45
r 0.3528 5 3 ping 64 ------- 4 5.0 1.0 -1 69
+ 0.3528 3 2 ping 64 ------- 4 5.0 1.0 -1 69
- 0.3528 3 2 ping 64 ------- 4 5.0 1.0 -1 69
r 0.355872 2 3 ping 64 ------- 1 0.0 4.0 -1 46
+ 0.355872 3 4 ping 64 ------- 1 0.0 4.0 -1 46
- 0.355872 3 4 ping 64 ------- 1 0.0 4.0 -1 46
r 0.356384 3 4 ping 64 ------- 1 0.0 4.0 -1 30
+ 0.356384 4 3 ping 64 ------- 3 4.0 0.0 -1 91
- 0.356384 4 3 ping 64 ------- 3 4.0 0.0 -1 91
r 0.356896 4 3 ping 64 ------- 3 4.0 0.0 -1 70
+ 0.356896 3 2 ping 64 ------- 3 4.0 0.0 -1 70
r 0.35792 3 2 ping 64 ------- 4 5.0 1.0 -1 48
+ 0.35792 2 1 ping 64 ------- 4 5.0 1.0 -1 48
- 0.35792 2 1 ping 64 ------- 4 5.0 1.0 -1 48
- 0.35792 3 2 ping 64 ------- 3 4.0 0.0 -1 70
+ 0.36 0 2 ping 64 ------- 1 0.0 4.0 -1 92
- 0.36 0 2 ping 64 ------- 1 0.0 4.0 -1 92
+ 0.36 1 2 ping 64 ------- 2 1.0 5.0 -1 93
- 0.36 1 2 ping 64 ------- 2 1.0 5.0 -1 93
r 0.360512 0 2 ping 64 ------- 1 0.0 4.0 -1 71
+ 0.360512 2 3 ping 64 ------- 1 0.0 4.0 -1 71
- 0.360512 2 3 ping 64 ------- 1 0.0 4.0 -1 71
r 0.360512 1 2 ping 64 ------- 2 1.0 5.0 -1 72
+ 0.360512 2 3 ping 64 ------- 2 1.0 5.0 -1 72
r 0.36304 3 2 ping 64 ------- 3 4.0 0.0 -1 49
+ 0.36304 2 0 ping 64 ------- 3 4.0 0.0 -1 49
- 0.36304 2 0 ping 64 ------- 3 4.0 0.0 -1 49
r 0.365632 2 3 ping 64 ------- 1 0.0 4.0 -1 50
+ 0.365632 3 4 ping 64 ------- 1 0.0 4.0 -1 50
- 0.365632 3 4 ping 64 ------- 1 0.0 4.0 -1 50
- 0.365632 2 3 ping 64 ------- 2 1.0 5.0 -1 72
r 0.366144 3 4 ping 64 ------- 1 0.0 4.0 -1 32
+ 0.366144 4 3 ping 64 ------- 3 4.0 0.0 -1 94
- 0.366144 4 3 ping 64 ------- 3 4.0 0.0 -1 94
r 0.366656 4 3 ping 64 ------- 3 4.0 0.0 -1 73
+ 0.366656 3 2 ping 64 ------- 3 4.0 0.0 -1 73
- 0.366656 3 2 ping 64 ------- 3 4.0 0.0 -1 73
+ 0.37 0 2 ping 64 ------- 1 0.0 4.0 -1 95
- 0.37 0 2 ping 64 ------- 1 0.0 4.0 -1 95
+ 0.37 1 2 ping 64 ------- 2 1.0 5.0 -1 96
- 0.37 1 2 ping 64 ------- 2 1.0 5.0 -1 96
r 0.370512 0 2 ping 64 ------- 1 0.0 4.0 -1 74
+ 0.370512 2 3 ping 64 ------- 1 0.0 4.0 -1 74
r 0.370512 1 2 ping 64 ------- 2 1.0 5.0 -1 75
+ 0.370512 2 3 ping 64 ------- 2 1.0 5.0 -1 75
d 0.370512 2 3 ping 64 ------- 2 1.0 5.0 -1 75
r 0.370752 2 3 ping 64 ------- 2 1.0 5.0 -1 51
+ 0.370752 3 5 ping 64 ------- 2 1.0 5.0 -1 51
- 0.370752 3 5 ping 64 ------- 2 1.0 5.0 -1 51
- 0.370752 2 3 ping 64 ------- 1 0.0 4.0 -1 74
r 0.371776 3 5 ping 64 ------- 2 1.0 5.0 -1 33
+ 0.371776 5 3 ping 64 ------- 4 5.0 1.0 -1 97
- 0.371776 5 3 ping 64 ------- 4 5.0 1.0 -1 97
r 0.371776 3 2 ping 64 ------- 3 4.0 0.0 -1 52
+ 0.371776 2 0 ping 64 ------- 3 4.0 0.0 -1 52
- 0.371776 2 0 ping 64 ------- 3 4.0 0.0 -1 52
r 0.3728 5 3 ping 64 ------- 4 5.0 1.0 -1 76
+ 0.3728 3 2 ping 64 ------- 4 5.0 1.0 -1 76
- 0.3728 3 2 ping 64 ------- 4 5.0 1.0 -1 76
r 0.375872 2 3 ping 64 ------- 1 0.0 4.0 -1 53
+ 0.375872 3 4 ping 64 ------- 1 0.0 4.0 -1 53
- 0.375872 3 4 ping 64 ------- 1 0.0 4.0 -1 53
r 0.376384 3 4 ping 64 ------- 1 0.0 4.0 -1 34
+ 0.376384 4 3 ping 64 ------- 3 4.0 0.0 -1 98
- 0.376384 4 3 ping 64 ------- 3 4.0 0.0 -1 98
r 0.376896 4 3 ping 64 ------- 3 4.0 0.0 -1 77
+ 0.376896 3 2 ping 64 ------- 3 4.0 0.0 -1 77
- 0.37792 3 2 ping 64 ------- 3 4.0 0.0 -1 77
r 0.37792 3 2 ping 64 ------- 4 5.0 1.0 -1 55
+ 0.37792 2 1 ping 64 ------- 4 5.0 1.0 -1 55
- 0.37792 2 1 ping 64 ------- 4 5.0 1.0 -1 55
+ 0.38 0 2 ping 64 ------- 1 0.0 4.0 -1 99
- 0.38 0 2 ping 64 ------- 1 0.0 4.0 -1 99
+ 0.38 1 2 ping 64 ------- 2 1.0 5.0 -1 100
- 0.38 1 2 ping 64 ------- 2 1.0 5.0 -1 100
r 0.380512 0 2 ping 64 ------- 1 0.0 4.0 -1 78
+ 0.380512 2 3 ping 64 ------- 1 0.0 4.0 -1 78
- 0.380512 2 3 ping 64 ------- 1 0.0 4.0 -1 78
r 0.380512 1 2 ping 64 ------- 2 1.0 5.0 -1 79
+ 0.380512 2 3 ping 64 ------- 2 1.0 5.0 -1 79
r 0.38304 3 2 ping 64 ------- 3 4.0 0.0 -1 56
+ 0.38304 2 0 ping 64 ------- 3 4.0 0.0 -1 56
- 0.38304 2 0 ping 64 ------- 3 4.0 0.0 -1 56
r 0.385632 2 3 ping 64 ------- 1 0.0 4.0 -1 57
+ 0.385632 3 4 ping 64 ------- 1 0.0 4.0 -1 57
- 0.385632 3 4 ping 64 ------- 1 0.0 4.0 -1 57
- 0.385632 2 3 ping 64 ------- 2 1.0 5.0 -1 79
r 0.386144 3 4 ping 64 ------- 1 0.0 4.0 -1 36
+ 0.386144 4 3 ping 64 ------- 3 4.0 0.0 -1 101
- 0.386144 4 3 ping 64 ------- 3 4.0 0.0 -1 101
r 0.386656 4 3 ping 64 ------- 3 4.0 0.0 -1 80
+ 0.386656 3 2 ping 64 ------- 3 4.0 0.0 -1 80
- 0.386656 3 2 ping 64 ------- 3 4.0 0.0 -1 80
+ 0.39 0 2 ping 64 ------- 1 0.0 4.0 -1 102
- 0.39 0 2 ping 64 ------- 1 0.0 4.0 -1 102
+ 0.39 1 2 ping 64 ------- 2 1.0 5.0 -1 103
- 0.39 1 2 ping 64 ------- 2 1.0 5.0 -1 103
r 0.390512 0 2 ping 64 ------- 1 0.0 4.0 -1 81
+ 0.390512 2 3 ping 64 ------- 1 0.0 4.0 -1 81
r 0.390512 1 2 ping 64 ------- 2 1.0 5.0 -1 82
+ 0.390512 2 3 ping 64 ------- 2 1.0 5.0 -1 82
d 0.390512 2 3 ping 64 ------- 2 1.0 5.0 -1 82
r 0.390752 2 3 ping 64 ------- 2 1.0 5.0 -1 58
+ 0.390752 3 5 ping 64 ------- 2 1.0 5.0 -1 58
- 0.390752 3 5 ping 64 ------- 2 1.0 5.0 -1 58
- 0.390752 2 3 ping 64 ------- 1 0.0 4.0 -1 81
r 0.391776 3 2 ping 64 ------- 3 4.0 0.0 -1 59
+ 0.391776 2 0 ping 64 ------- 3 4.0 0.0 -1 59
- 0.391776 2 0 ping 64 ------- 3 4.0 0.0 -1 59
r 0.391776 3 5 ping 64 ------- 2 1.0 5.0 -1 37
+ 0.391776 5 3 ping 64 ------- 4 5.0 1.0 -1 104
- 0.391776 5 3 ping 64 ------- 4 5.0 1.0 -1 104
r 0.392288 2 0 ping 64 ------- 3 4.0 0.0 -1 38
r 0.3928 5 3 ping 64 ------- 4 5.0 1.0 -1 83
+ 0.3928 3 2 ping 64 ------- 4 5.0 1.0 -1 83
- 0.3928 3 2 ping 64 ------- 4 5.0 1.0 -1 83
r 0.395872 2 3 ping 64 ------- 1 0.0 4.0 -1 60
+ 0.395872 3 4 ping 64 ------- 1 0.0 4.0 -1 60
- 0.395872 3 4 ping 64 ------- 1 0.0 4.0 -1 60
r 0.396384 3 4 ping 64 ------- 1 0.0 4.0 -1 39
+ 0.396384 4 3 ping 64 ------- 3 4.0 0.0 -1 105
- 0.396384 4 3 ping 64 ------- 3 4.0 0.0 -1 105
r 0.396896 4 3 ping 64 ------- 3 4.0 0.0 -1 84
+ 0.396896 3 2 ping 64 ------- 3 4.0 0.0 -1 84
- 0.39792 3 2 ping 64 ------- 3 4.0 0.0 -1 84
r 0.39792 3 2 ping 64 ------- 4 5.0 1.0 -1 62
+ 0.39792 2 1 ping 64 ------- 4 5.0 1.0 -1 62
- 0.39792 2 1 ping 64 ------- 4 5.0 1.0 -1 62
r 0.398432 2 1 ping 64 ------- 4 5.0 1.0 -1 41
+ 0.4 0 2 ping 64 ------- 1 0.0 4.0 -1 106
- 0.4 0 2 ping 64 ------- 1 0.0 4.0 -1 106
+ 0.4 1 2 ping 64 ------- 2 1.0 5.0 -1 107
- 0.4 1 2 ping 64 ------- 2 1.0 5.0 -1 107
r 0.400512 0 2 ping 64 ------- 1 0.0 4.0 -1 85