n -t 0 -s 0 -S DLABEL -l "ping1" -L ""
n -t 0 -s 1 -S DLABEL -l "ping2" -L ""
n -t 0 -s 2 -S DLABEL -l "R1" -L ""
n -t 0 -s 3 -S DLABEL -l "R2" -L ""
n -t 0 -s 4 -S DLABEL -l "ping3" -L ""
n -t 0 -s 5 -S DLABEL -l "ping4" -L ""
V -t * -v 1.0a5 -a 0
A -t * -n 1 -p 0 -o 0x7fffffff -c 30 -a 1
A -t * -h 1 -m 1073741823 -s 0
c -t * -i 4 -n orange
c -t * -i 1 -n red
c -t * -i 2 -n blue
c -t * -i 3 -n green
n -t * -a 4 -s 4 -S UP -v circle -c black -i black
n -t * -a 0 -s 0 -S UP -v circle -c black -i black
n -t * -a 5 -s 5 -S UP -v circle -c black -i black
n -t * -a 1 -s 1 -S UP -v circle -c black -i black
n -t * -a 2 -s 2 -S UP -v circle -c black -i black
n -t * -a 3 -s 3 -S UP -v circle -c black -i black
l -t * -s 0 -d 2 -S UP -r 1000000 -D 0.059999999999999998 -c black -o right-down
l -t * -s 1 -d 2 -S UP -r 1000000 -D 0.059999999999999998 -c black -o right-up
l -t * -s 2 -d 3 -S UP -r 100000 -D 0.059999999999999998 -c black -o right
l -t * -s 3 -d 4 -S UP -r 1000000 -D 0.059999999999999998 -c black -o right-up
l -t * -s 3 -d 5 -S UP -r 500000 -D 0.059999999999999998 -c black -o right-down
+ -t 0.02 -s 0 -d 2 -p ping -e 64 -c 1 -i 0 -a 1 -x {0.0 4.0 -1 ------- null}
- -t 0.02 -s 0 -d 2 -p ping -e 64 -c 1 -i 0 -a 1 -x {0.0 4.0 -1 ------- null}
h -t 0.02 -s 0 -d 2 -p ping -e 64 -c 1 -i 0 -a 1 -x {0.0 4.0 -1 ------- null}
+ -t 0.02 -s 1 -d 2 -p ping -e 64 -c 2 -i 1 -a 2 -x {1.0 5.0 -1 ------- null}
- -t 0.02 -s 1 -d 2 -p ping -e 64 -c 2 -i 1 -a 2 -x {1.0 5.0 -1 ------- null}
h -t 0.02 -s 1 -d 2 -p ping -e 64 -c 2 -i 1 -a 2 -x {1.0 5.0 -1 ------- null}
+ -t 0.03 -s 0 -d 2 -p ping -e 64 -c 1 -i 2 -a 1 -x {0.0 4.0 -1 ------- null}
- -t 0.03 -s 0 -d 2 -p ping -e 64 -c 1 -i 2 -a 1 -x {0.0 4.0 -1 ------- null}
h -t 0.03 -s 0 -d 2 -p ping -e 64 -c 1 -i 2 -a 1 -x {0.0 4.0 -1 ------- null}
+ -t 0.03 -s 1 -d 2 -p ping -e 64 -c 2 -i 3 -a 2 -x {1.0 5.0 -1 ------- null}
- -t 0.03 -s 1 -d 2 -p ping -e 64 -c 2 -i 3 -a 2 -x {1.0 5.0 -1 ------- null}
h -t 0.03 -s 1 -d 2 -p ping -e 64 -c 2 -i 3 -a 2 -x {1.0 5.0 -1 ------- null}
+ -t 0.04 -s 0 -d 2 -p ping -e 64 -c 1 -i 4 -a 1 -x {0.0 4.0 -1 ------- null}
- -t 0.04 -s 0 -d 2 -p ping -e 64 -c 1 -i 4 -a 1 -x {0.0 4.0 -1 ------- null}
h -t 0.04 -s 0 -d 2 -p ping -e 64 -c 1 -i 4 -a 1 -x {0.0 4.0 -1 ------- null}
+ -t 0.04 -s 1 -d 2 -p ping -e 64 -c 2 -i 5 -a 2 -x {1.0 5.0 -1 ------- null}
- -t 0.04 -s 1 -d 2 -p ping -e 64 -c 2 -i 5 -a 2 -x {1.0 5.0 -1 ------- null}
h -t 0.04 -s 1 -d 2 -p ping -e 64 -c 2 -i 5 -a 2 -x {1.0 5.0 -1 ------- null}
+ -t 0.05 -s 0 -d 2 -p ping -e 64 -c 1 -i 6 -a 1 -x {0.0 4.0 -1 ------- null}
- -t 0.05 -s 0 -d 2 -p ping -e 64 -c 1 -i 6 -a 1 -x {0.0 4.0 -1 ------- null}
h -t 0.05 -s 0 -d 2 -p ping -e 64 -c 1 -i 6 -a 1 -x {0.0 4.0 -1 ------- null}
+ -t 0.05 -s 1 -d 2 -p ping -e 64 -c 2 -i 7 -a 2 -x {1.0 5.0 -1 ------- null}
- -t 0.05 -s 1 -d 2 -p ping -e 64 -c 2 -i 7 -a 2 -x {1.0 5.0 -1 ------- null}
h -t 0.05 -s 1 -d 2 -p ping -e 64 -c 2 -i 7 -a 2 -x {1.0 5.0 -1 ------- null}
+ -t 0.06 -s 0 -d 2 -p ping -e 64 -c 1 -i 8 -a 1 -x {0.0 4.0 -1 ------- null}
- -t 0.06 -s 0 -d 2 -p ping -e 64 -c 1 -i 8 -a 1 -x {0.0 4.0 -1 ------- null}
h -t 0.06 -s 0 -d 2 -p ping -e 64 -c 1 -i 8 -a 1 -x {0.0 4.0 -1 ------- null}
+ -t 0.06 -s 1 -d 2 -p ping -e 64 -c 2 -i 9 -a 2 -x {1.0 5.0 -1 ------- null}
- -t 0.06 -s 1 -d 2 -p ping -e 64 -c 2 -i 9 -a 2 -x {1.0 5.0 -1 ------- null}
h -t 0.06 -s 1 -d 2 -p ping -e 64 -c 2 -i 9 -a 2 -x {1.0 5.0 -1 ------- null}
+ -t 0.07 -s 0 -d 2 -p ping -e 64 -c 1 -i 10 -a 1 -x {0.0 4.0 -1 ------- null}
- -t 0.07 -s 0 -d 2 -p ping -e 64 -c 1 -i 10 -a 1 -x {0.0 4.0 -1 ------- null}
h -t 0.07 -s 0 -d 2 -p ping -e 64 -c 1 -i 10 -a 1 -x {0.0 4.0 -1 ------- null}
+ -t 0.07 -s 1 -d 2 -p ping -e 64 -c 2 -i 11 -a 2 -x {1.0 5.0 -1 ------- null}
- -t 0.07 -s 1 -d 2 -p ping -e 64 -c 2 -i 11 -a 2 -x {1.0 5.0 -1 ------- null}
h -t 0.07 -s 1 -d 2 -p ping -e 64 -c 2 -i 11 -a 2 -x {1.0 5.0 -1 ------- null}
+ -t 0.08 -s 0 -d 2 -p ping -e 64 -c 1 -i 12 -a 1 -x {0.0 4.0 -1 ------- null}
- -t 0.08 -s 0 -d 2 -p ping -e 64 -c 1 -i 12 -a 1 -x {0.0 4.0 -1 ------- null}
h -t 0.08 -s 0 -d 2 -p ping -e 64 -c 1 -i 12 -a 1 -x {0.0 4.0 -1 ------- null}
+ -t 0.08 -s 1 -d 2 -p ping -e 64 -c 2 -i 13 -a 2 -x {1.0 5.0 -1 ------- null}
- -t 0.08 -s 1 -d 2 -p ping -e 64 -c 2 -i 13 -a 2 -x {1.0 5.0 -1 ------- null}
h -t 0.08 -s 1 -d 2 -p ping -e 64 -c 2 -i 13 -a 2 -x {1.0 5.0 -1 ------- null}
r -t 0.080512 -s 0 -d 2 -p ping -e 64 -c 1 -i 0 -a 1 -x {0.0 4.0 -1 ------- null}
+ -t 0.080512 -s 2 -d 3 -p ping -e 64 -c 1 -i 0 -a 1 -x {0.0 4.0 -1 ------- null}
- -t 0.080512 -s 2 -d 3 -p ping -e 64 -c 1 -i 0 -a 1 -x {0.0 4.0 -1 ------- null}
h -t 0.080512 -s 2 -d 3 -p ping -e 64 -c 1 -i 0 -a 1 -x {0.0 4.0 -1 ------- null}
r -t 0.080512 -s 1 -d 2 -p ping -e 64 -c 2 -i 1 -a 2 -x {1.0 5.0 -1 ------- null}
+ -t 0.080512 -s 2 -d 3 -p ping -e 64 -c 2 -i 1 -a 2 -x {1.0 5.0 -1 ------- null}
- -t 0.085632 -s 2 -d 3 -p ping -e 64 -c 2 -i 1 -a 2 -x {1.0 5.0 -1 ------- null}
h -t 0.085632 -s 2 -d 3 -p ping -e 64 -c 2 -i 1 -a 2 -x {1.0 5.0 -1 ------- null}
+ -t 0.09 -s 0 -d 2 -p ping -e 64 -c 1 -i 14 -a 1 -x {0.0 4.0 -1 ------- null}
- -t 0.09 -s 0 -d 2 -p ping -e 64 -c 1 -i 14 -a 1 -x {0.0 4.0 -1 ------- null}
h -t 0.09 -s 0 -d 2 -p ping -e 64 -c 1 -i 14 -a 1 -x {0.0 4.0 -1 ------- null}
+ -t 0.09 -s 1 -d 2 -p ping -e 64 -c 2 -i 15 -a 2 -x {1.0 5.0 -1 ------- null}
- -t 0.09 -s 1 -d 2 -p ping -e 64 -c 2 -i 15 -a 2 -x {1.0 5.0 -1 ------- null}
h -t 0.09 -s 1 -d 2 -p ping -e 64 -c 2 -i 15 -a 2 -x {1.0 5.0 -1 ------- null}
r -t 0.090512 -s 0 -d 2 -p ping -e 64 -c 1 -i 2 -a 1 -x {0.0 4.0 -1 ------- null}
+ -t 0.090512 -s 2 -d 3 -p ping -e 64 -c 1 -i 2 -a 1 -x {0.0 4.0 -1 ------- null}
r -t 0.090512 -s 1 -d 2 -p ping -e 64 -c 2 -i 3 -a 2 -x {1.0 5.0 -1 ------- null}
+ -t 0.090512 -s 2 -d 3 -p ping -e 64 -c 2 -i 3 -a 2 -x {1.0 5.0 -1 ------- null}
d -t 0.090512 -s 2 -d 3 -p ping -e 64 -c 2 -i 3 -a 2 -x {1.0 5.0 -1 ------- null}
- -t 0.090752 -s 2 -d 3 -p ping -e 64 -c 1 -i 2 -a 1 -x {0.0 4.0 -1 ------- null}
h -t 0.090752 -s 2 -d 3 -p ping -e 64 -c 1 -i 2 -a 1 -x {0.0 4.0 -1 ------- null}
+ -t 0.1 -s 0 -d 2 -p ping -e 64 -c 1 -i 16 -a 1 -x {0.0 4.0 -1 ------- null}
- -t 0.1 -s 0 -d 2 -p ping -e 64 -c 1 -i 16 -a 1 -x {0.0 4.0 -1 ------- null}
h -t 0.1 -s 0 -d 2 -p ping -e 64 -c 1 -i 16 -a 1 -x {0.0 4.0 -1 ------- null}
+ -t 0.1 -s 1 -d 2 -p ping -e 64 -c 2 -i 17 -a 2 -x {1.0 5.0 -1 ------- null}
- -t 0.1 -s 1 -d 2 -p ping -e 64 -c 2 -i 17 -a 2 -x {1.0 5.0 -1 ------- null}
h -t 0.1 -s 1 -d 2 -p ping -e 64 -c 2 -i 17 -a 2 -x {1.0 5.0 -1 ------- null}
r -t 0.100512 -s 0 -d 2 -p ping -e 64 -c 1 -i 4 -a 1 -x {0.0 4.0 -1 ------- null}
+ -t 0.100512 -s 2 -d 3 -p ping -e 64 -c 1 -i 4 -a 1 -x {0.0 4.0 -1 ------- null}
- -t 0.100512 -s 2 -d 3 -p ping -e 64 -c 1 -i 4 -a 1 -x {0.0 4.0 -1 ------- null}
h -t 0.100512 -s 2 -d 3 -p ping -e 64 -c 1 -i 4 -a 1 -x {0.0 4.0 -1 ------- null}
r -t 0.100512 -s 1 -d 2 -p ping -e 64 -c 2 -i 5 -a 2 -x {1.0 5.0 -1 ------- null}
+ -t 0.100512 -s 2 -d 3 -p ping -e 64 -c 2 -i 5 -a 2 -x {1.0 5.0 -1 ------- null}
- -t 0.105632 -s 2 -d 3 -p ping -e 64 -c 2 -i 5 -a 2 -x {1.0 5.0 -1 ------- null}
h -t 0.105632 -s 2 -d 3 -p ping -e 64 -c 2 -i 5 -a 2 -x {1.0 5.0 -1 ------- null}
+ -t 0.11 -s 0 -d 2 -p ping -e 64 -c 1 -i 18 -a 1 -x {0.0 4.0 -1 ------- null}
- -t 0.11 -s 0 -d 2 -p ping -e 64 -c 1 -i 18 -a 1 -x {0.0 4.0 -1 ------- null}
h -t 0.11 -s 0 -d 2 -p ping -e 64 -c 1 -i 18 -a 1 -x {0.0 4.0 -1 ------- null}
+ -t 0.11 -s 1 -d 2 -p ping -e 64 -c 2 -i 19 -a 2 -x {1.0 5.0 -1 ------- null}
- -t 0.11 -s 1 -d 2 -p ping -e 64 -c 2 -i 19 -a 2 -x {1.0 5.0 -1 ------- null}
h -t 0.11 -s 1 -d 2 -p ping -e 64 -c 2 -i 19 -a 2 -x {1.0 5.0 -1 ------- null}
r -t 0.110512 -s 0 -d 2 -p ping -e 64 -c 1 -i 6 -a 1 -x {0.0 4.0 -1 ------- null}
+ -t 0.110512 -s 2 -d 3 -p ping -e 64 -c 1 -i 6 -a 1 -x {0.0 4.0 -1 ------- null}
r -t 0.110512 -s 1 -d 2 -p ping -e 64 -c 2 -i 7 -a 2 -x {1.0 5.0 -1 ------- null}
+ -t 0.110512 -s 2 -d 3 -p ping -e 64 -c 2 -i 7 -a 2 -x {1.0 5.0 -1 ------- null}
d -t 0.110512 -s 2 -d 3 -p ping -e 64 -c 2 -i 7 -a 2 -x {1.0 5.0 -1 ------- null}
- -t 0.110752 -s 2 -d 3 -p ping -e 64 -c 1 -i 6 -a 1 -x {0.0 4.0 -1 ------- null}
h -t 0.110752 -s 2 -d 3 -p ping -e 64 -c 1 -i 6 -a 1 -x {0.0 4.0 -1 ------- null}
+ -t 0.12 -s 0 -d 2 -p ping -e 64 -c 1 -i 20 -a 1 -x {0.0 4.0 -1 ------- null}
- -t 0.12 -s 0 -d 2 -p ping -e 64 -c 1 -i 20 -a 1 -x {0.0 4.0 -1 ------- null}
h -t 0.12 -s 0 -d 2 -p ping -e 64 -c 1 -i 20 -a 1 -x {0.0 4.0 -1 ------- null}
+ -t 0.12 -s 1 -d 2 -p ping -e 64 -c 2 -i 21 -a 2 -x {1.0 5.0 -1 ------- null}
- -t 0.12 -s 1 -d 2 -p ping -e 64 -c 2 -i 21 -a 2 -x {1.0 5.0 -1 ------- null}
h -t 0.12 -s 1 -d 2 -p ping -e 64 -c 2 -i 21 -a 2 -x {1.0 5.0 -1 ------- null}
r -t 0.120512 -s 0 -d 2 -p ping -e 64 -c 1 -i 8 -a 1 -x {0.0 4.0 -1 ------- null}
+ -t 0.120512 -s 2 -d 3 -p ping -e 64 -c 1 -i 8 -a 1 -x {0.0 4.0 -1 ------- null}
- -t 0.120512 -s 2 -d 3 -p ping -e 64 -c 1 -i 8 -a 1 -x {0.0 4.0 -1 ------- null}
h -t 0.120512 -s 2 -d 3 -p ping -e 64 -c 1 -i 8 -a 1 -x {0.0 4.0 -1 ------- null}
r -t 0.120512 -s 1 -d 2 -p ping -e 64 -c 2 -i 9 -a 2 -x {1.0 5.0 -1 ------- null}
+ -t 0.120512 -s 2 -d 3 -p ping -e 64 -c 2 -i 9 -a 2 -x {1.0 5.0 -1 ------- null}
- -t 0.125632 -s 2 -d 3 -p ping -e 64 -c 2 -i 9 -a 2 -x {1.0 5.0 -1 ------- null}
h -t 0.125632 -s 2 -d 3 -p ping -e 64 -c 2 -i 9 -a 2 -x {1.0 5.0 -1 ------- null}
+ -t 0.13 -s 0 -d 2 -p ping -e 64 -c 1 -i 22 -a 1 -x {0.0 4.0 -1 ------- null}
- -t 0.13 -s 0 -d 2 -p ping -e 64 -c 1 -i 22 -a 1 -x {0.0 4.0 -1 ------- null}
h -t 0.13 -s 0 -d 2 -p ping -e 64 -c 1 -i 22 -a 1 -x {0.0 4.0 -1 ------- null}
+ -t 0.13 -s 1 -d 2 -p ping -e 64 -c 2 -i 23 -a 2 -x {1.0 5.0 -1 ------- null}
- -t 0.13 -s 1 -d 2 -p ping -e 64 -c 2 -i 23 -a 2 -x {1.0 5.0 -1 ------- null}
h -t 0.13 -s 1 -d 2 -p ping -e 64 -c 2 -i 23 -a 2 -x {1.0 5.0 -1 ------- null}
r -t 0.130512 -s 0 -d 2 -p ping -e 64 -c 1 -i 10 -a 1 -x {0.0 4.0 -1 ------- null}
+ -t 0.130512 -s 2 -d 3 -p ping -e 64 -c 1 -i 10 -a 1 -x {0.0 4.0 -1 ------- null}
r -t 0.130512 -s 1 -d 2 -p ping -e 64 -c 2 -i 11 -a 2 -x {1.0 5.0 -1 ------- null}
+ -t 0.130512 -s 2 -d 3 -p ping -e 64 -c 2 -i 11 -a 2 -x {1.0 5.0 -1 ------- null}
d -t 0.130512 -s 2 -d 3 -p ping -e 64 -c 2 -i 11 -a 2 -x {1.0 5.0 -1 ------- null}
- -t 0.130752 -s 2 -d 3 -p ping -e 64 -c 1 -i 10 -a 1 -x {0.0 4.0 -1 ------- null}
h -t 0.130752 -s 2 -d 3 -p ping -e 64 -c 1 -i 10 -a 1 -x {0.0 4.0 -1 ------- null}
+ -t 0.14 -s 0 -d 2 -p ping -e 64 -c 1 -i 24 -a 1 -x {0.0 4.0 -1 ------- null}
- -t 0.14 -s 0 -d 2 -p ping -e 64 -c 1 -i 24 -a 1 -x {0.0 4.0 -1 ------- null}
h -t 0.14 -s 0 -d 2 -p ping -e 64 -c 1 -i 24 -a 1 -x {0.0 4.0 -1 ------- null}
+ -t 0.14 -s 1 -d 2 -p ping -e 64 -c 2 -i 25 -a 2 -x {1.0 5.0 -1 ------- null}
- -t 0.14 -s 1 -d 2 -p ping -e 64 -c 2 -i 25 -a 2 -x {1.0 5.0 -1 ------- null}
h -t 0.14 -s 1 -d 2 -p ping -e 64 -c 2 -i 25 -a 2 -x {1.0 5.0 -1 ------- null}
r -t 0.140512 -s 0 -d 2 -p ping -e 64 -c 1 -i 12 -a 1 -x {0.0 4.0 -1 ------- null}
+ -t 0.140512 -s 2 -d 3 -p ping -e 64 -c 1 -i 12 -a 1 -x {0.0 4.0 -1 ------- null}
- -t 0.140512 -s 2 -d 3 -p ping -e 64 -c 1 -i 12 -a 1 -x {0.0 4.0 -1 ------- null}
h -t 0.140512 -s 2 -d 3 -p ping -e 64 -c 1 -i 12 -a 1 -x {0.0 4.0 -1 ------- null}
r -t 0.140512 -s 1 -d 2 -p ping -e 64 -c 2 -i 13 -a 2 -x {1.0 5.0 -1 ------- null}
+ -t 0.140512 -s 2 -d 3 -p ping -e 64 -c 2 -i 13 -a 2 -x {1.0 5.0 -1 ------- null}
r -t 0.145632 -s 2 -d 3 -p ping -e 64 -c 1 -i 0 -a 1 -x {0.0 4.0 -1 ------- null}
+ -t 0.145632 -s 3 -d 4 -p ping -e 64 -c 1 -i 0 -a 1 -x {0.0 4.0 -1 ------- null}
- -t 0.145632 -s 3 -d 4 -p ping -e 64 -c 1 -i 0 -a 1 -x {0.0 4.0 -1 ------- null}
h -t 0.145632 -s 3 -d 4 -p ping -e 64 -c 1 -i 0 -a 1 -x {0.0 4.0 -1 ------- null}
- -t 0.145632 -s 2 -d 3 -p ping -e 64 -c 2 -i 13 -a 2 -x {1.0 5.0 -1 ------- null}
h -t 0.145632 -s 2 -d 3 -p ping -e 64 -c 2 -i 13 -a 2 -x {1.0 5.0 -1 ------- null}
+ -t 0.15 -s 0 -d 2 -p ping -e 64 -c 1 -i 26 -a 1 -x {0.0 4.0 -1 ------- null}
- -t 0.15 -s 0 -d 2 -p ping -e 64 -c 1 -i 26 -a 1 -x {0.0 4.0 -1 ------- null}
h -t 0.15 -s 0 -d 2 -p ping -e 64 -c 1 -i 26 -a 1 -x {0.0 4.0 -1 ------- null}
+ -t 0.15 -s 1 -d 2 -p ping -e 64 -c 2 -i 27 -a 2 -x {1.0 5.0 -1 ------- null}
- -t 0.15 -s 1 -d 2 -p ping -e 64 -c 2 -i 27 -a 2 -x {1.0 5.0 -1 ------- null}
h -t 0.15 -s 1 -d 2 -p ping -e 64 -c 2 -i 27 -a 2 -x {1.0 5.0 -1 ------- null}
r -t 0.150512 -s 0 -d 2 -p ping -e 64 -c 1 -i 14 -a 1 -x {0.0 4.0 -1 ------- null}
+ -t 0.150512 -s 2 -d 3 -p ping -e 64 -c 1 -i 14 -a 1 -x {0.0 4.0 -1 ------- null}
r -t 0.150512 -s 1 -d 2 -p ping -e 64 -c 2 -i 15 -a 2 -x {1.0 5.0 -1 ------- null}
+ -t 0.150512 -s 2 -d 3 -p ping -e 64 -c 2 -i 15 -a 2 -x {1.0 5.0 -1 ------- null}
d -t 0.150512 -s 2 -d 3 -p ping -e 64 -c 2 -i 15 -a 2 -x {1.0 5.0 -1 ------- null}
r -t 0.150752 -s 2 -d 3 -p ping -e 64 -c 2 -i 1 -a 2 -x {1.0 5.0 -1 ------- null}
+ -t 0.150752 -s 3 -d 5 -p ping -e 64 -c 2 -i 1 -a 2 -x {1.0 5.0 -1 ------- null}
- -t 0.150752 -s 3 -d 5 -p ping -e 64 -c 2 -i 1 -a 2 -x {1.0 5.0 -1 ------- null}
h -t 0.150752 -s 3 -d 5 -p ping -e 64 -c 2 -i 1 -a 2 -x {1.0 5.0 -1 ------- null}
- -t 0.150752 -s 2 -d 3 -p ping -e 64 -c 1 -i 14 -a 1 -x {0.0 4.0 -1 ------- null}
h -t 0.150752 -s 2 -d 3 -p ping -e 64 -c 1 -i 14 -a 1 -x {0.0 4.0 -1 ------- null}
r -t 0.155872 -s 2 -d 3 -p ping -e 64 -c 1 -i 2 -a 1 -x {0.0 4.0 -1 ------- null}
+ -t 0.155872 -s 3 -d 4 -p ping -e 64 -c 1 -i 2 -a 1 -x {0.0 4.0 -1 ------- null}
- -t 0.155872 -s 3 -d 4 -p ping -e 64 -c 1 -i 2 -a 1 -x {0.0 4.0 -1 ------- null}
h -t 0.155872 -s 3 -d 4 -p ping -e 64 -c 1 -i 2 -a 1 -x {0.0 4.0 -1 ------- null}
+ -t 0.16 -s 0 -d 2 -p ping -e 64 -c 1 -i 28 -a 1 -x {0.0 4.0 -1 ------- null}
- -t 0.16 -s 0 -d 2 -p ping -e 64 -c 1 -i 28 -a 1 -x {0.0 4.0 -1 ------- null}
h -t 0.16 -s 0 -d 2 -p ping -e 64 -c 1 -i 28 -a 1 -x {0.0 4.0 -1 ------- null}
+ -t 0.16 -s 1 -d 2 -p ping -e 64 -c 2 -i 29 -a 2 -x {1.0 5.0 -1 ------- null}
- -t 0.16 -s 1 -d 2 -p ping -e 64 -c 2 -i 29 -a 2 -x {1.0 5.0 -1 ------- null}
h -t 0.16 -s 1 -d 2 -p ping -e 64 -c 2 -i 29 -a 2 -x {1.0 5.0 -1 ------- null}
r -t 0.160512 -s 0 -d 2 -p ping -e 64 -c 1 -i 16 -a 1 -x {0.0 4.0 -1 ------- null}
+ -t 0.160512 -s 2 -d 3 -p ping -e 64 -c 1 -i 16 -a 1 -x {0.0 4.0 -1 ------- null}
- -t 0.160512 -s 2 -d 3 -p ping -e 64 -c 1 -i 16 -a 1 -x {0.0 4.0 -1 ------- null}
h -t 0.160512 -s 2 -d 3 -p ping -e 64 -c 1 -i 16 -a 1 -x {0.0 4.0 -1 ------- null}
r -t 0.160512 -s 1 -d 2 -p ping -e 64 -c 2 -i 17 -a 2 -x {1.0 5.0 -1 ------- null}
+ -t 0.160512 -s 2 -d 3 -p ping -e 64 -c 2 -i 17 -a 2 -x {1.0 5.0 -1 ------- null}
r -t 0.165632 -s 2 -d 3 -p ping -e 64 -c 1 -i 4 -a 1 -x {0.0 4.0 -1 ------- null}
+ -t 0.165632 -s 3 -d 4 -p ping -e 64 -c 1 -i 4 -a 1 -x {0.0 4.0 -1 ------- null}
- -t 0.165632 -s 3 -d 4 -p ping -e 64 -c 1 -i 4 -a 1 -x {0.0 4.0 -1 ------- null}
h -t 0.165632 -s 3 -d 4 -p ping -e 64 -c 1 -i 4 -a 1 -x {0.0 4.0 -1 ------- null}
- -t 0.165632 -s 2 -d 3 -p ping -e 64 -c 2 -i 17 -a 2 -x {1.0 5.0 -1 ------- null}
h -t 0.165632 -s 2 -d 3 -p ping -e 64 -c 2 -i 17 -a 2 -x {1.0 5.0 -1 ------- null}
+ -t 0.17 -s 0 -d 2 -p ping -e 64 -c 1 -i 30 -a 1 -x {0.0 4.0 -1 ------- null}
- -t 0.17 -s 0 -d 2 -p ping -e 64 -c 1 -i 30 -a 1 -x {0.0 4.0 -1 ------- null}
h -t 0.17 -s 0 -d 2 -p ping -e 64 -c 1 -i 30 -a 1 -x {0.0 4.0 -1 ------- null}
+ -t 0.17 -s 1 -d 2 -p ping -e 64 -c 2 -i 31 -a 2 -x {1.0 5.0 -1 ------- null}
- -t 0.17 -s 1 -d 2 -p ping -e 64 -c 2 -i 31 -a 2 -x {1.0 5.0 -1 ------- null}
h -t 0.17 -s 1 -d 2 -p ping -e 64 -c 2 -i 31 -a 2 -x {1.0 5.0 -1 ------- null}
r -t 0.170512 -s 0 -d 2 -p ping -e 64 -c 1 -i 18 -a 1 -x {0.0 4.0 -1 ------- null}
+ -t 0.170512 -s 2 -d 3 -p ping -e 64 -c 1 -i 18 -a 1 -x {0.0 4.0 -1 ------- null}
r -t 0.170512 -s 1 -d 2 -p ping -e 64 -c 2 -i 19 -a 2 -x {1.0 5.0 -1 ------- null}
+ -t 0.170512 -s 2 -d 3 -p ping -e 64 -c 2 -i 19 -a 2 -x {1.0 5.0 -1 ------- null}
d -t 0.170512 -s 2 -d 3 -p ping -e 64 -c 2 -i 19 -a 2 -x {1.0 5.0 -1 ------- null}
r -t 0.170752 -s 2 -d 3 -p ping -e 64 -c 2 -i 5 -a 2 -x {1.0 5.0 -1 ------- null}
+ -t 0.170752 -s 3 -d 5 -p ping -e 64 -c 2 -i 5 -a 2 -x {1.0 5.0 -1 ------- null}
- -t 0.170752 -s 3 -d 5 -p ping -e 64 -c 2 -i 5 -a 2 -x {1.0 5.0 -1 ------- null}
h -t 0.170752 -s 3 -d 5 -p ping -e 64 -c 2 -i 5 -a 2 -x {1.0 5.0 -1 ------- null}
- -t 0.170752 -s 2 -d 3 -p ping -e 64 -c 1 -i 18 -a 1 -x {0.0 4.0 -1 ------- null}
h -t 0.170752 -s 2 -d 3 -p ping -e 64 -c 1 -i 18 -a 1 -x {0.0 4.0 -1 ------- null}
r -t 0.175872 -s 2 -d 3 -p ping -e 64 -c 1 -i 6 -a 1 -x {0.0 4.0 -1 ------- null}
+ -t 0.175872 -s 3 -d 4 -p ping -e 64 -c 1 -i 6 -a 1 -x {0.0 4.0 -1 ------- null}
- -t 0.175872 -s 3 -d 4 -p ping -e 64 -c 1 -i 6 -a 1 -x {0.0 4.0 -1 ------- null}
h -t 0.175872 -s 3 -d 4 -p ping -e 64 -c 1 -i 6 -a 1 -x {0.0 4.0 -1 ------- null}
+ -t 0.18 -s 0 -d 2 -p ping -e 64 -c 1 -i 32 -a 1 -x {0.0 4.0 -1 ------- null}
- -t 0.18 -s 0 -d 2 -p ping -e 64 -c 1 -i 32 -a 1 -x {0.0 4.0 -1 ------- null}
h -t 0.18 -s 0 -d 2 -p ping -e 64 -c 1 -i 32 -a 1 -x {0.0 4.0 -1 ------- null}
+ -t 0.18 -s 1 -d 2 -p ping -e 64 -c 2 -i 33 -a 2 -x {1.0 5.0 -1 ------- null}
- -t 0.18 -s 1 -d 2 -p ping -e 64 -c 2 -i 33 -a 2 -x {1.0 5.0 -1 ------- null}
h -t 0.18 -s 1 -d 2 -p ping -e 64 -c 2 -i 33 -a 2 -x {1.0 5.0 -1 ------- null}
r -t 0.180512 -s 0 -d 2 -p ping -e 64 -c 1 -i 20 -a 1 -x {0.0 4.0 -1 ------- null}
+ -t 0.180512 -s 2 -d 3 -p ping -e 64 -c 1 -i 20 -a 1 -x {0.0 4.0 -1 ------- null}
- -t 0.180512 -s 2 -d 3 -p ping -e 64 -c 1 -i 20 -a 1 -x {0.0 4.0 -1 ------- null}
h -t 0.180512 -s 2 -d 3 -p ping -e 64 -c 1 -i 20 -a 1 -x {0.0 4.0 -1 ------- null}
r -t 0.180512 -s 1 -d 2 -p ping -e 64 -c 2 -i 21 -a 2 -x {1.0 5.0 -1 ------- null}
+ -t 0.180512 -s 2 -d 3 -p ping -e 64 -c 2 -i 21 -a 2 -x {1.0 5.0 -1 ------- null}
- -t 0.185632 -s 2 -d 3 -p ping -e 64 -c 2 -i 21 -a 2 -x {1.0 5.0 -1 ------- null}
h -t 0.185632 -s 2 -d 3 -p ping -e 64 -c 2 -i 21 -a 2 -x {1.0 5.0 -1 ------- null}
r -t 0.185632 -s 2 -d 3 -p ping -e 64 -c 1 -i 8 -a 1 -x {0.0 4.0 -1 ------- null}
+ -t 0.185632 -s 3 -d 4 -p ping -e 64 -c 1 -i 8 -a 1 -x {0.0 4.0 -1 ------- null}
- -t 0.185632 -s 3 -d 4 -p ping -e 64 -c 1 -i 8 -a 1 -x {0.0 4.0 -1 ------- null}
h -t 0.185632 -s 3 -d 4 -p ping -e 64 -c 1 -i 8 -a 1 -x {0.0 4.0 -1 ------- null}
+ -t 0.19 -s 0 -d 2 -p ping -e 64 -c 1 -i 34 -a 1 -x {0.0 4.0 -1 ------- null}
- -t 0.19 -s 0 -d 2 -p ping -e 64 -c 1 -i 34 -a 1 -x {0.0 4.0 -1 ------- null}
h -t 0.19 -s 0 -d 2 -p ping -e 64 -c 1 -i 34 -a 1 -x {0.0 4.0 -1 ------- null}
+ -t 0.19 -s 1 -d 2 -p ping -e 64 -c 2 -i 35 -a 2 -x {1.0 5.0 -1 ------- null}
- -t 0.19 -s 1 -d 2 -p ping -e 64 -c 2 -i 35 -a 2 -x {1.0 5.0 -1 ------- null}
h -t 0.19 -s 1 -d 2 -p ping -e 64 -c 2 -i 35 -a 2 -x {1.0 5.0 -1 ------- null}
r -t 0.190512 -s 0 -d 2 -p ping -e 64 -c 1 -i 22 -a 1 -x {0.0 4.0 -1 ------- null}
+ -t 0.190512 -s 2 -d 3 -p ping -e 64 -c 1 -i 22 -a 1 -x {0.0 4.0 -1 ------- null}
r -t 0.190512 -s 1 -d 2 -p ping -e 64 -c 2 -i 23 -a 2 -x {1.0 5.0 -1 ------- null}
+ -t 0.190512 -s 2 -d 3 -p ping -e 64 -c 2 -i 23 -a 2 -x {1.0 5.0 -1 ------- null}
d -t 0.190512 -s 2 -d 3 -p ping -e 64 -c 2 -i 23 -a 2 -x {1.0 5.0 -1 ------- null}
- -t 0.190752 -s 2 -d 3 -p ping -e 64 -c 1 -i 22 -a 1 -x {0.0 4.0 -1 ------- null}
h -t 0.190752 -s 2 -d 3 -p ping -e 64 -c 1 -i 22 -a 1 -x {0.0 4.0 -1 ------- null}
r -t 0.190752 -s 2 -d 3 -p ping -e 64 -c 2 -i 9 -a 2 -x {1.0 5.0 -1 ------- null}
+ -t 0.190752 -s 3 -d 5 -p ping -e 64 -c 2 -i 9 -a 2 -x {1.0 5.0 -1 ------- null}
- -t 0.190752 -s 3 -d 5 -p ping -e 64 -c 2 -i 9 -a 2 -x {1.0 5.0 -1 ------- null}
h -t 0.190752 -s 3 -d 5 -p ping -e 64 -c 2 -i 9 -a 2 -x {1.0 5.0 -1 ------- null}
r -t 0.195872 -s 2 -d 3 -p ping -e 64 -c 1 -i 10 -a 1 -x {0.0 4.0 -1 ------- null}
+ -t 0.195872 -s 3 -d 4 -p ping -e 64 -c 1 -i 10 -a 1 -x {0.0 4.0 -1 ------- null}
- -t 0.195872 -s 3 -d 4 -p ping -e 64 -c 1 -i 10 -a 1 -x {0.0 4.0 -1 ------- null}
h -t 0.195872 -s 3 -d 4 -p ping -e 64 -c 1 -i 10 -a 1 -x {0.0 4.0 -1 ------- null}
+ -t 0.2 -s 0 -d 2 -p ping -e 64 -c 1 -i 36 -a 1 -x {0.0 4.0 -1 ------- null}
- -t 0.2 -s 0 -d 2 -p ping -e 64 -c 1 -i 36 -a 1 -x {0.0 4.0 -1 ------- null}
h -t 0.2 -s 0 -d 2 -p ping -e 64 -c 1 -i 36 -a 1 -x {0.0 4.0 -1 ------- null}
+ -t 0.2 -s 1 -d 2 -p ping -e 64 -c 2 -i 37 -a 2 -x {1.0 5.0 -1 ------- null}
- -t 0.2 -s 1 -d 2 -p ping -e 64 -c 2 -i 37 -a 2 -x {1.0 5.0 -1 ------- null}
h -t 0.2 -s 1 -d 2 -p ping -e 64 -c 2 -i 37 -a 2 -x {1.0 5.0 -1 ------- null}
r -t 0.200512 -s 0 -d 2 -p ping -e 64 -c 1 -i 24 -a 1 -x {0.0 4.0 -1 ------- null}
+ -t 0.200512 -s 2 -d 3 -p ping -e 64 -c 1 -i 24 -a 1 -x {0.0 4.0 -1 ------- null}
- -t 0.200512 -s 2 -d 3 -p ping -e 64 -c 1 -i 24 -a 1 -x {0.0 4.0 -1 ------- null}
h -t 0.200512 -s 2 -d 3 -p ping -e 64 -c 1 -i 24 -a 1 -x {0.0 4.0 -1 ------- null}
r -t 0.200512 -s 1 -d 2 -p ping -e 64 -c 2 -i 25 -a 2 -x {1.0 5.0 -1 ------- null}
+ -t 0.200512 -s 2 -d 3 -p ping -e 64 -c 2 -i 25 -a 2 -x {1.0 5.0 -1 ------- null}
r -t 0.205632 -s 2 -d 3 -p ping -e 64 -c 1 -i 12 -a 1 -x {0.0 4.0 -1 ------- null}
+ -t 0.205632 -s 3 -d 4 -p ping -e 64 -c 1 -i 12 -a 1 -x {0.0 4.0 -1 ------- null}
- -t 0.205632 -s 3 -d 4 -p ping -e 64 -c 1 -i 12 -a 1 -x {0.0 4.0 -1 ------- null}
h -t 0.205632 -s 3 -d 4 -p ping -e 64 -c 1 -i 12 -a 1 -x {0.0 4.0 -1 ------- null}
- -t 0.205632 -s 2 -d 3 -p ping -e 64 -c 2 -i 25 -a 2 -x {1.0 5.0 -1 ------- null}
h -t 0.205632 -s 2 -d 3 -p ping -e 64 -c 2 -i 25 -a 2 -x {1.0 5.0 -1 ------- null}
r -t 0.206144 -s 3 -d 4 -p ping -e 64 -c 1 -i 0 -a 1 -x {0.0 4.0 -1 ------- null}
+ -t 0.206144 -s 4 -d 3 -p ping -e 64 -c 3 -i 38 -a 3 -x {4.0 0.0 -1 ------- null}
- -t 0.206144 -s 4 -d 3 -p ping -e 64 -c 3 -i 38 -a 3 -x {4.0 0.0 -1 ------- null}
h -t 0.206144 -s 4 -d 3 -p ping -e 64 -c 3 -i 38 -a 3 -x {4.0 0.0 -1 ------- null}
+ -t 0.21 -s 0 -d 2 -p ping -e 64 -c 1 -i 39 -a 1 -x {0.0 4.0 -1 ------- null}
- -t 0.21 -s 0 -d 2 -p ping -e 64 -c 1 -i 39 -a 1 -x {0.0 4.0 -1 ------- null}
h -t 0.21 -s 0 -d 2 -p ping -e 64 -c 1 -i 39 -a 1 -x {0.0 4.0 -1 ------- null}
+ -t 0.21 -s 1 -d 2 -p ping -e 64 -c 2 -i 40 -a 2 -x {1.0 5.0 -1 ------- null}
- -t 0.21 -s 1 -d 2 -p ping -e 64 -c 2 -i 40 -a 2 -x {1.0 5.0 -1 ------- null}
h -t 0.21 -s 1 -d 2 -p ping -e 64 -c 2 -i 40 -a 2 -x {1.0 5.0 -1 ------- null}
r -t 0.210512 -s 0 -d 2 -p ping -e 64 -c 1 -i 26 -a 1 -x {0.0 4.0 -1 ------- null}
+ -t 0.210512 -s 2 -d 3 -p ping -e 64 -c 1 -i 26 -a 1 -x {0.0 4.0 -1 ------- null}
r -t 0.210512 -s 1 -d 2 -p ping -e 64 -c 2 -i 27 -a 2 -x {1.0 5.0 -1 ------- null}
+ -t 0.210512 -s 2 -d 3 -p ping -e 64 -c 2 -i 27 -a 2 -x {1.0 5.0 -1 ------- null}
d -t 0.210512 -s 2 -d 3 -p ping -e 64 -c 2 -i 27 -a 2 -x {1.0 5.0 -1 ------- null}
r -t 0.210752 -s 2 -d 3 -p ping -e 64 -c 2 -i 13 -a 2 -x {1.0 5.0 -1 ------- null}
+ -t 0.210752 -s 3 -d 5 -p ping -e 64 -c 2 -i 13 -a 2 -x {1.0 5.0 -1 ------- null}
- -t 0.210752 -s 3 -d 5 -p ping -e 64 -c 2 -i 13 -a 2 -x {1.0 5.0 -1 ------- null}
h -t 0.210752 -s 3 -d 5 -p ping -e 64 -c 2 -i 13 -a 2 -x {1.0 5.0 -1 ------- null}
- -t 0.210752 -s 2 -d 3 -p ping -e 64 -c 1 -i 26 -a 1 -x {0.0 4.0 -1 ------- null}
h -t 0.210752 -s 2 -d 3 -p ping -e 64 -c 1 -i 26 -a 1 -x {0.0 4.0 -1 ------- null}
r -t 0.211776 -s 3 -d 5 -p ping -e 64 -c 2 -i 1 -a 2 -x {1.0 5.0 -1 ------- null}
+ -t 0.211776 -s 5 -d 3 -p ping -e 64 -c 4 -i 41 -a 4 -x {5.0 1.0 -1 ------- null}
- -t 0.211776 -s 5 -d 3 -p ping -e 64 -c 4 -i 41 -a 4 -x {5.0 1.0 -1 ------- null}
h -t 0.211776 -s 5 -d 3 -p ping -e 64 -c 4 -i 41 -a 4 -x {5.0 1.0 -1 ------- null}
r -t 0.215872 -s 2 -d 3 -p ping -e 64 -c 1 -i 14 -a 1 -x {0.0 4.0 -1 ------- null}
+ -t 0.215872 -s 3 -d 4 -p ping -e 64 -c 1 -i 14 -a 1 -x {0.0 4.0 -1 ------- null}
- -t 0.215872 -s 3 -d 4 -p ping -e 64 -c 1 -i 14 -a 1 -x {0.0 4.0 -1 ------- null}
h -t 0.215872 -s 3 -d 4 -p ping -e 64 -c 1 -i 14 -a 1 -x {0.0 4.0 -1 ------- null}
r -t 0.216384 -s 3 -d 4 -p ping -e 64 -c 1 -i 2 -a 1 -x {0.0 4.0 -1 ------- null}
+ -t 0.216384 -s 4 -d 3 -p ping -e 64 -c 3 -i 42 -a 3 -x {4.0 0.0 -1 ------- null}
- -t 0.216384 -s 4 -d 3 -p ping -e 64 -c 3 -i 42 -a 3 -x {4.0 0.0 -1 ------- null}
h -t 0.216384 -s 4 -d 3 -p ping -e 64 -c 3 -i 42 -a 3 -x {4.0 0.0 -1 ------- null}
+ -t 0.22 -s 0 -d 2 -p ping -e 64 -c 1 -i 43 -a 1 -x {0.0 4.0 -1 ------- null}
- -t 0.22 -s 0 -d 2 -p ping -e 64 -c 1 -i 43 -a 1 -x {0.0 4.0 -1 ------- null}
h -t 0.22 -s 0 -d 2 -p ping -e 64 -c 1 -i 43 -a 1 -x {0.0 4.0 -1 ------- null}
+ -t 0.22 -s 1 -d 2 -p ping -e 64 -c 2 -i 44 -a 2 -x {1.0 5.0 -1 ------- null}
- -t 0.22 -s 1 -d 2 -p ping -e 64 -c 2 -i 44 -a 2 -x {1.0 5.0 -1 ------- null}
h -t 0.22 -s 1 -d 2 -p ping -e 64 -c 2 -i 44 -a 2 -x {1.0 5.0 -1 ------- null}
r -t 0.220512 -s 0 -d 2 -p ping -e 64 -c 1 -i 28 -a 1 -x {0.0 4.0 -1 ------- null}
+ -t 0.220512 -s 2 -d 3 -p ping -e 64 -c 1 -i 28 -a 1 -x {0.0 4.0 -1 ------- null}
- -t 0.220512 -s 2 -d 3 -p ping -e 64 -c 1 -i 28 -a 1 -x {0.0 4.0 -1 ------- null}
h -t 0.220512 -s 2 -d 3 -p ping -e 64 -c 1 -i 28 -a 1 -x {0.0 4.0 -1 ------- null}
r -t 0.220512 -s 1 -d 2 -p ping -e 64 -c 2 -i 29 -a 2 -x {1.0 5.0 -1 ------- null}
+ -t 0.220512 -s 2 -d 3 -p ping -e 64 -c 2 -i 29 -a 2 -x {1.0 5.0 -1 ------- null}
r -t 0.225632 -s 2 -d 3 -p ping -e 64 -c 1 -i 16 -a 1 -x {0.0 4.0 -1 ------- null}
+ -t 0.225632 -s 3 -d 4 -p ping -e 64 -c 1 -i 16 -a 1 -x {0.0 4.0 -1 ------- null}
- -t 0.225632 -s 3 -d 4 -p ping -e 64 -c 1 -i 16 -a 1 -x {0.0 4.0 -1 ------- null}
h -t 0.225632 -s 3 -d 4 -p ping -e 64 -c 1 -i 16 -a 1 -x {0.0 4.0 -1 ------- null}
- -t 0.225632 -s 2 -d 3 -p ping -e 64 -c 2 -i 29 -a 2 -x {1.0 5.0 -1 ------- null}
h -t 0.225632 -s 2 -d 3 -p ping -e 64 -c 2 -i 29 -a 2 -x {1.0 5.0 -1 ------- null}
r -t 0.226144 -s 3 -d 4 -p ping -e 64 -c 1 -i 4 -a 1 -x {0.0 4.0 -1 ------- null}
+ -t 0.226144 -s 4 -d 3 -p ping -e 64 -c 3 -i 45 -a 3 -x {4.0 0.0 -1 ------- null}
- -t 0.226144 -s 4 -d 3 -p ping -e 64 -c 3 -i 45 -a 3 -x {4.0 0.0 -1 ------- null}
h -t 0.226144 -s 4 -d 3 -p ping -e 64 -c 3 -i 45 -a 3 -x {4.0 0.0 -1 ------- null}
+ -t 0.23 -s 0 -d 2 -p ping -e 64 -c 1 -i 46 -a 1 -x {0.0 4.0 -1 ------- null}
- -t 0.23 -s 0 -d 2 -p ping -e 64 -c 1 -i 46 -a 1 -x {0.0 4.0 -1 ------- null}
h -t 0.23 -s 0 -d 2 -p ping -e 64 -c 1 -i 46 -a 1 -x {0.0 4.0 -1 ------- null}
+ -t 0.23 -s 1 -d 2 -p ping -e 64 -c 2 -i 47 -a 2 -x {1.0 5.0 -1 ------- null}
- -t 0.23 -s 1 -d 2 -p ping -e 64 -c 2 -i 47 -a 2 -x {1.0 5.0 -1 ------- null}
h -t 0.23 -s 1 -d 2 -p ping -e 64 -c 2 -i 47 -a 2 -x {1.0 5.0 -1 ------- null}
r -t 0.230512 -s 0 -d 2 -p ping -e 64 -c 1 -i 30 -a 1 -x {0.0 4.0 -1 ------- null}
+ -t 0.230512 -s 2 -d 3 -p ping -e 64 -c 1 -i 30 -a 1 -x {0.0 4.0 -1 ------- null}
r -t 0.230512 -s 1 -d 2 -p ping -e 64 -c 2 -i 31 -a 2 -x {1.0 5.0 -1 ------- null}
+ -t 0.230512 -s 2 -d 3 -p ping -e 64 -c 2 -i 31 -a 2 -x {1.0 5.0 -1 ------- null}
d -t 0.230512 -s 2 -d 3 -p ping -e 64 -c 2 -i 31 -a 2 -x {1.0 5.0 -1 ------- null}
r -t 0.230752 -s 2 -d 3 -p ping -e 64 -c 2 -i 17 -a 2 -x {1.0 5.0 -1 ------- null}
+ -t 0.230752 -s 3 -d 5 -p ping -e 64 -c 2 -i 17 -a 2 -x {1.0 5.0 -1 ------- null}
- -t 0.230752 -s 3 -d 5 -p ping -e 64 -c 2 -i 17 -a 2 -x {1.0 5.0 -1 ------- null}
h -t 0.230752 -s 3 -d 5 -p ping -e 64 -c 2 -i 17 -a 2 -x {1.0 5.0 -1 ------- null}
- -t 0.230752 -s 2 -d 3 -p ping -e 64 -c 1 -i 30 -a 1 -x {0.0 4.0 -1 ------- null}
h -t 0.230752 -s 2 -d 3 -p ping -e 64 -c 1 -i 30 -a 1 -x {0.0 4.0 -1 ------- null}
r -t 0.231776 -s 3 -d 5 -p ping -e 64 -c 2 -i 5 -a 2 -x {1.0 5.0 -1 ------- null}
+ -t 0.231776 -s 5 -d 3 -p ping -e 64 -c 4 -i 48 -a 4 -x {5.0 1.0 -1 ------- null}
- -t 0.231776 -s 5 -d 3 -p ping -e 64 -c 4 -i 48 -a 4 -x {5.0 1.0 -1 ------- null}
h -t 0.231776 -s 5 -d 3 -p ping -e 64 -c 4 -i 48 -a 4 -x {5.0 1.0 -1 ------- null}
r -t 0.235872 -s 2 -d 3 -p ping -e 64 -c 1 -i 18 -a 1 -x {0.0 4.0 -1 ------- null}
+ -t 0.235872 -s 3 -d 4 -p ping -e 64 -c 1 -i 18 -a 1 -x {0.0 4.0 -1 ------- null}
- -t 0.235872 -s 3 -d 4 -p ping -e 64 -c 1 -i 18 -a 1 -x {0.0 4.0 -1 ------- null}
h -t 0.235872 -s 3 -d 4 -p ping -e 64 -c 1 -i 18 -a 1 -x {0.0 4.0 -1 ------- null}
r -t 0.236384 -s 3 -d 4 -p ping -e 64 -c 1 -i 6 -a 1 -x {0.0 4.0 -1 ------- null}
+ -t 0.236384 -s 4 -d 3 -p ping -e 64 -c 3 -i 49 -a 3 -x {4.0 0.0 -1 ------- null}
- -t 0.236384 -s 4 -d 3 -p ping -e 64 -c 3 -i 49 -a 3 -x {4.0 0.0 -1 ------- null}
h -t 0.236384 -s 4 -d 3 -p ping -e 64 -c 3 -i 49 -a 3 -x {4.0 0.0 -1 ------- null}
+ -t 0.24 -s 0 -d 2 -p ping -e 64 -c 1 -i 50 -a 1 -x {0.0 4.0 -1 ------- null}
- -t 0.24 -s 0 -d 2 -p ping -e 64 -c 1 -i 50 -a 1 -x {0.0 4.0 -1 ------- null}
h -t 0.24 -s 0 -d 2 -p ping -e 64 -c 1 -i 50 -a 1 -x {0.0 4.0 -1 ------- null}
+ -t 0.24 -s 1 -d 2 -p ping -e 64 -c 2 -i 51 -a 2 -x {1.0 5.0 -1 ------- null}
- -t 0.24 -s 1 -d 2 -p ping -e 64 -c 2 -i 51 -a 2 -x {1.0 5.0 -1 ------- null}
h -t 0.24 -s 1 -d 2 -p ping -e 64 -c 2 -i 51 -a 2 -x {1.0 5.0 -1 ------- null}
r -t 0.240512 -s 0 -d 2 -p ping -e 64 -c 1 -i 32 -a 1 -x {0.0 4.0 -1 ------- null}
+ -t 0.240512 -s 2 -d 3 -p ping -e 64 -c 1 -i 32 -a 1 -x {0.0 4.0 -1 ------- null}
- -t 0.240512 -s 2 -d 3 -p ping -e 64 -c 1 -i 32 -a 1 -x {0.0 4.0 -1 ------- null}
h -t 0.240512 -s 2 -d 3 -p ping -e 64 -c 1 -i 32 -a 1 -x {0.0 4.0 -1 ------- null}
r -t 0.240512 -s 1 -d 2 -p ping -e 64 -c 2 -i 33 -a 2 -x {1.0 5.0 -1 ------- null}
+ -t 0.240512 -s 2 -d 3 -p ping -e 64 -c 2 -i 33 -a 2 -x {1.0 5.0 -1 ------- null}
r -t 0.245632 -s 2 -d 3 -p ping -e 64 -c 1 -i 20 -a 1 -x {0.0 4.0 -1 ------- null}
+ -t 0.245632 -s 3 -d 4 -p ping -e 64 -c 1 -i 20 -a 1 -x {0.0 4.0 -1 ------- null}
- -t 0.245632 -s 3 -d 4 -p ping -e 64 -c 1 -i 20 -a 1 -x {0.0 4.0 -1 ------- null}
h -t 0.245632 -s 3 -d 4 -p ping -e 64 -c 1 -i 20 -a 1 -x {0.0 4.0 -1 ------- null}
- -t 0.245632 -s 2 -d 3 -p ping -e 64 -c 2 -i 33 -a 2 -x {1.0 5.0 -1 ------- null}
h -t 0.245632 -s 2 -d 3 -p ping -e 64 -c 2 -i 33 -a 2 -x {1.0 5.0 -1 ------- null}
r -t 0.246144 -s 3 -d 4 -p ping -e 64 -c 1 -i 8 -a 1 -x {0.0 4.0 -1 ------- null}
+ -t 0.246144 -s 4 -d 3 -p ping -e 64 -c 3 -i 52 -a 3 -x {4.0 0.0 -1 ------- null}